<?xml version="1.0" encoding="UTF-8"?>

<!-- generated on 2024-09-03 02:46:01 by Eclipse SUMO sumo Version 1.20.0
<configuration xmlns:xsi="http://www.w3.org/2001/XMLSchema-instance" xsi:noNamespaceSchemaLocation="http://sumo.dlr.de/xsd/sumoConfiguration.xsd">

    <input>
        <net-file value="c:\self\School\Master\Disertation\code\RESCO\resco_benchmark\environments/unirii/osm.net.xml.gz"/>
        <route-files value="c:\self\School\Master\Disertation\code\RESCO\resco_benchmark\environments/unirii/osm.passenger.trips.xml"/>
        <additional-files value="c:\self\School\Master\Disertation\code\RESCO\resco_benchmark\environments/unirii/osm.poly.xml.gz"/>
    </input>

    <output>
        <tripinfo-output value="C:\self\School\Master\Disertation\code\RESCO\results\IA2C-tr0-unirii-0-drq_norm-wait_norm\tripinfo_53.xml"/>
        <tripinfo-output.write-unfinished value="true"/>
    </output>

    <processing>
        <ignore-route-errors value="true"/>
        <time-to-teleport value="-1"/>
    </processing>

    <routing>
        <device.rerouting.adaptation-steps value="18"/>
        <device.rerouting.adaptation-interval value="10"/>
    </routing>

    <report>
        <verbose value="true"/>
        <no-warnings value="True"/>
        <duration-log.statistics value="true"/>
        <no-step-log value="True"/>
    </report>

    <traci_server>
        <remote-port value="52357"/>
    </traci_server>

    <random_number>
        <random value="true"/>
    </random_number>

    <gui_only>
        <gui-settings-file value="c:\self\School\Master\Disertation\code\RESCO\resco_benchmark\environments/unirii/osm.view.xml"/>
    </gui_only>

</configuration>
-->

<tripinfos xmlns:xsi="http://www.w3.org/2001/XMLSchema-instance" xsi:noNamespaceSchemaLocation="http://sumo.dlr.de/xsd/tripinfo_file.xsd">
    <tripinfo id="6" depart="13.00" departLane="-218680176#1_0" departPos="5.10" departSpeed="0.00" departDelay="0.29" arrival="54.00" arrivalLane="153964138#0_2" arrivalPos="337.99" arrivalSpeed="16.61" duration="41.00" routeLength="462.27" waitingTime="1.00" waitingCount="1" stopTime="0.00" timeLoss="11.54" rerouteNo="0" devices="tripinfo_6" vType="DEFAULT_VEHTYPE" speedFactor="1.04" vaporized=""/>
    <tripinfo id="10" depart="23.00" departLane="978867529_0" departPos="5.10" departSpeed="0.00" departDelay="1.82" arrival="63.00" arrivalLane="231177697#0_1" arrivalPos="74.44" arrivalSpeed="11.41" duration="40.00" routeLength="437.06" waitingTime="0.00" waitingCount="0" stopTime="0.00" timeLoss="7.14" rerouteNo="0" devices="tripinfo_10" vType="DEFAULT_VEHTYPE" speedFactor="0.87" vaporized=""/>
    <tripinfo id="15" depart="33.00" departLane="978867529_0" departPos="5.10" departSpeed="0.00" departDelay="1.24" arrival="67.00" arrivalLane="231177697#0_1" arrivalPos="74.44" arrivalSpeed="12.99" duration="34.00" routeLength="437.06" waitingTime="0.00" waitingCount="0" stopTime="0.00" timeLoss="4.84" rerouteNo="0" devices="tripinfo_15" vType="DEFAULT_VEHTYPE" speedFactor="1.00" vaporized=""/>
    <tripinfo id="7" depart="15.00" departLane="65746828#0_0" departPos="5.10" departSpeed="0.00" departDelay="0.18" arrival="91.00" arrivalLane="218680176#0_1" arrivalPos="98.94" arrivalSpeed="12.78" duration="76.00" routeLength="602.71" waitingTime="20.00" waitingCount="1" stopTime="0.00" timeLoss="31.02" rerouteNo="0" devices="tripinfo_7" vType="DEFAULT_VEHTYPE" speedFactor="1.00" vaporized=""/>
    <tripinfo id="32" depart="68.00" departLane="978867529_0" departPos="5.10" departSpeed="0.00" departDelay="0.24" arrival="100.00" arrivalLane="231177697#0_1" arrivalPos="74.44" arrivalSpeed="14.60" duration="32.00" routeLength="437.06" waitingTime="0.00" waitingCount="0" stopTime="0.00" timeLoss="5.48" rerouteNo="0" devices="tripinfo_32" vType="DEFAULT_VEHTYPE" speedFactor="1.11" vaporized=""/>
    <tripinfo id="1" depart="3.00" departLane="-231177697#2_0" departPos="5.10" departSpeed="0.00" departDelay="0.88" arrival="103.00" arrivalLane="210831345#1_1" arrivalPos="264.29" arrivalSpeed="12.75" duration="100.00" routeLength="696.92" waitingTime="32.00" waitingCount="2" stopTime="0.00" timeLoss="48.78" rerouteNo="0" devices="tripinfo_1" vType="DEFAULT_VEHTYPE" speedFactor="1.01" vaporized=""/>
    <tripinfo id="40" depart="85.00" departLane="65746828#0_0" departPos="5.10" departSpeed="0.00" departDelay="0.29" arrival="124.00" arrivalLane="210831345#1_0" arrivalPos="264.29" arrivalSpeed="14.15" duration="39.00" routeLength="446.75" waitingTime="0.00" waitingCount="0" stopTime="0.00" timeLoss="8.37" rerouteNo="0" devices="tripinfo_40" vType="DEFAULT_VEHTYPE" speedFactor="1.06" vaporized=""/>
    <tripinfo id="35" depart="75.00" departLane="-226276377#1_0" departPos="5.10" departSpeed="0.00" departDelay="0.88" arrival="131.00" arrivalLane="450554042#0_0" arrivalPos="622.66" arrivalSpeed="15.47" duration="56.00" routeLength="763.53" waitingTime="0.00" waitingCount="0" stopTime="0.00" timeLoss="7.21" rerouteNo="0" devices="tripinfo_35" vType="DEFAULT_VEHTYPE" speedFactor="1.00" vaporized=""/>
    <tripinfo id="16" depart="34.00" departLane="256961141#0_0" departPos="5.10" departSpeed="0.00" departDelay="0.12" arrival="145.00" arrivalLane="450554042#0_0" arrivalPos="622.66" arrivalSpeed="16.55" duration="111.00" routeLength="853.74" waitingTime="48.00" waitingCount="1" stopTime="0.00" timeLoss="58.98" rerouteNo="0" devices="tripinfo_16" vType="DEFAULT_VEHTYPE" speedFactor="1.05" vaporized=""/>
    <tripinfo id="50" depart="106.00" departLane="-218680176#1_0" departPos="5.10" departSpeed="0.00" departDelay="0.12" arrival="166.00" arrivalLane="231177697#0_0" arrivalPos="74.44" arrivalSpeed="11.27" duration="60.00" routeLength="205.97" waitingTime="27.00" waitingCount="2" stopTime="0.00" timeLoss="43.00" rerouteNo="0" devices="tripinfo_50" vType="DEFAULT_VEHTYPE" speedFactor="0.89" vaporized=""/>
    <tripinfo id="68" depart="144.00" departLane="-218680176#1_0" departPos="5.10" departSpeed="0.00" departDelay="0.00" arrival="173.00" arrivalLane="231177697#0_0" arrivalPos="74.44" arrivalSpeed="15.62" duration="29.00" routeLength="205.97" waitingTime="0.00" waitingCount="0" stopTime="0.00" timeLoss="15.57" rerouteNo="0" devices="tripinfo_68" vType="DEFAULT_VEHTYPE" speedFactor="1.19" vaporized=""/>
    <tripinfo id="2" depart="5.00" departLane="666135205#0_0" departPos="5.10" departSpeed="0.00" departDelay="0.76" arrival="187.00" arrivalLane="231177697#0_0" arrivalPos="74.44" arrivalSpeed="13.80" duration="182.00" routeLength="649.17" waitingTime="121.00" waitingCount="1" stopTime="0.00" timeLoss="133.40" rerouteNo="0" devices="tripinfo_2" vType="DEFAULT_VEHTYPE" speedFactor="1.01" vaporized=""/>
    <tripinfo id="47" depart="100.00" departLane="-218680176#1_0" departPos="5.10" departSpeed="0.00" departDelay="0.47" arrival="191.00" arrivalLane="210831347#0_0" arrivalPos="149.88" arrivalSpeed="14.32" duration="91.00" routeLength="560.58" waitingTime="31.00" waitingCount="2" stopTime="0.00" timeLoss="51.43" rerouteNo="0" devices="tripinfo_47" vType="DEFAULT_VEHTYPE" speedFactor="1.06" vaporized=""/>
    <tripinfo id="28" depart="60.00" departLane="-226276377#1_0" departPos="5.10" departSpeed="0.00" departDelay="0.71" arrival="192.00" arrivalLane="231177697#0_0" arrivalPos="74.44" arrivalSpeed="13.64" duration="132.00" routeLength="1114.63" waitingTime="38.00" waitingCount="2" stopTime="0.00" timeLoss="58.14" rerouteNo="0" devices="tripinfo_28" vType="DEFAULT_VEHTYPE" speedFactor="1.06" vaporized=""/>
    <tripinfo id="30" depart="64.00" departLane="E8_0" departPos="5.10" departSpeed="0.00" departDelay="0.47" arrival="194.00" arrivalLane="226276377#0_1" arrivalPos="135.52" arrivalSpeed="12.08" duration="130.00" routeLength="784.51" waitingTime="58.00" waitingCount="1" stopTime="0.00" timeLoss="68.20" rerouteNo="0" devices="tripinfo_30" vType="DEFAULT_VEHTYPE" speedFactor="0.93" vaporized=""/>
    <tripinfo id="31" depart="66.00" departLane="65746828#0_0" departPos="5.10" departSpeed="0.00" departDelay="0.35" arrival="194.00" arrivalLane="231177697#0_0" arrivalPos="74.44" arrivalSpeed="13.63" duration="128.00" routeLength="558.79" waitingTime="70.00" waitingCount="2" stopTime="0.00" timeLoss="88.66" rerouteNo="0" devices="tripinfo_31" vType="DEFAULT_VEHTYPE" speedFactor="1.06" vaporized=""/>
    <tripinfo id="61" depart="130.00" departLane="978867529_0" departPos="5.10" departSpeed="0.00" departDelay="0.82" arrival="194.00" arrivalLane="218680176#0_0" arrivalPos="98.94" arrivalSpeed="12.37" duration="64.00" routeLength="442.15" waitingTime="22.00" waitingCount="1" stopTime="0.00" timeLoss="32.96" rerouteNo="0" devices="tripinfo_61" vType="DEFAULT_VEHTYPE" speedFactor="0.96" vaporized=""/>
    <tripinfo id="54" depart="115.00" departLane="256961141#0_0" departPos="5.10" departSpeed="0.00" departDelay="0.65" arrival="197.00" arrivalLane="450554042#0_0" arrivalPos="622.66" arrivalSpeed="16.19" duration="82.00" routeLength="853.74" waitingTime="17.00" waitingCount="1" stopTime="0.00" timeLoss="27.73" rerouteNo="0" devices="tripinfo_54" vType="DEFAULT_VEHTYPE" speedFactor="1.01" vaporized=""/>
    <tripinfo id="4" depart="9.00" departLane="-661251539_0" departPos="5.10" departSpeed="0.00" departDelay="0.53" arrival="198.00" arrivalLane="-256961141#1_1" arrivalPos="204.72" arrivalSpeed="14.20" duration="189.00" routeLength="872.91" waitingTime="116.00" waitingCount="1" stopTime="0.00" timeLoss="130.03" rerouteNo="0" devices="tripinfo_4" vType="DEFAULT_VEHTYPE" speedFactor="1.02" vaporized=""/>
    <tripinfo id="0" depart="0.00" departLane="65746828#0_0" departPos="5.10" departSpeed="0.00" departDelay="0.00" arrival="200.00" arrivalLane="-256961141#1_1" arrivalPos="204.72" arrivalSpeed="13.93" duration="200.00" routeLength="931.50" waitingTime="120.00" waitingCount="2" stopTime="0.00" timeLoss="140.76" rerouteNo="0" devices="tripinfo_0" vType="DEFAULT_VEHTYPE" speedFactor="1.05" vaporized=""/>
    <tripinfo id="11" depart="24.00" departLane="-661251539_0" departPos="5.10" departSpeed="0.00" departDelay="0.71" arrival="203.00" arrivalLane="153964138#0_0" arrivalPos="337.99" arrivalSpeed="15.77" duration="179.00" routeLength="1239.04" waitingTime="75.00" waitingCount="2" stopTime="0.00" timeLoss="95.12" rerouteNo="0" devices="tripinfo_11" vType="DEFAULT_VEHTYPE" speedFactor="1.02" vaporized=""/>
    <tripinfo id="20" depart="43.00" departLane="666135205#0_0" departPos="5.10" departSpeed="0.00" departDelay="0.65" arrival="203.00" arrivalLane="-256961141#1_1" arrivalPos="204.72" arrivalSpeed="12.87" duration="160.00" routeLength="1068.72" waitingTime="74.00" waitingCount="1" stopTime="0.00" timeLoss="87.04" rerouteNo="0" devices="tripinfo_20" vType="DEFAULT_VEHTYPE" speedFactor="0.99" vaporized=""/>
    <tripinfo id="25" depart="53.00" departLane="-661251539_0" departPos="5.10" departSpeed="0.00" departDelay="0.06" arrival="206.00" arrivalLane="153964138#0_0" arrivalPos="337.99" arrivalSpeed="15.76" duration="153.00" routeLength="1239.04" waitingTime="44.00" waitingCount="3" stopTime="0.00" timeLoss="67.72" rerouteNo="0" devices="tripinfo_25" vType="DEFAULT_VEHTYPE" speedFactor="1.01" vaporized=""/>
    <tripinfo id="13" depart="28.00" departLane="-218680176#1_0" departPos="5.10" departSpeed="0.00" departDelay="0.47" arrival="207.00" arrivalLane="-256961141#1_1" arrivalPos="204.72" arrivalSpeed="11.94" duration="179.00" routeLength="1207.38" waitingTime="62.00" waitingCount="3" stopTime="0.00" timeLoss="87.47" rerouteNo="0" devices="tripinfo_13" vType="DEFAULT_VEHTYPE" speedFactor="0.90" vaporized=""/>
    <tripinfo id="59" depart="125.00" departLane="65746828#0_0" departPos="5.10" departSpeed="0.00" departDelay="0.06" arrival="208.00" arrivalLane="153964138#0_1" arrivalPos="337.99" arrivalSpeed="15.27" duration="83.00" routeLength="834.49" waitingTime="11.00" waitingCount="1" stopTime="0.00" timeLoss="22.41" rerouteNo="0" devices="tripinfo_59" vType="DEFAULT_VEHTYPE" speedFactor="0.93" vaporized=""/>
    <tripinfo id="46" depart="98.00" departLane="978867529_0" departPos="5.10" departSpeed="0.00" departDelay="0.59" arrival="218.00" arrivalLane="210831347#0_0" arrivalPos="149.88" arrivalSpeed="16.27" duration="120.00" routeLength="812.56" waitingTime="51.00" waitingCount="2" stopTime="0.00" timeLoss="72.17" rerouteNo="0" devices="tripinfo_46" vType="DEFAULT_VEHTYPE" speedFactor="1.17" vaporized=""/>
    <tripinfo id="27" depart="58.00" departLane="65746828#0_0" departPos="5.10" departSpeed="0.00" departDelay="0.82" arrival="220.00" arrivalLane="226276377#0_0" arrivalPos="135.52" arrivalSpeed="10.26" duration="162.00" routeLength="841.69" waitingTime="76.00" waitingCount="2" stopTime="0.00" timeLoss="92.03" rerouteNo="0" devices="tripinfo_27" vType="DEFAULT_VEHTYPE" speedFactor="0.81" vaporized=""/>
    <tripinfo id="3" depart="7.00" departLane="E8_0" departPos="5.10" departSpeed="0.00" departDelay="0.65" arrival="221.00" arrivalLane="-256961141#1_0" arrivalPos="204.72" arrivalSpeed="12.90" duration="214.00" routeLength="832.89" waitingTime="142.00" waitingCount="1" stopTime="0.00" timeLoss="154.15" rerouteNo="0" devices="tripinfo_3" vType="DEFAULT_VEHTYPE" speedFactor="1.01" vaporized=""/>
    <tripinfo id="45" depart="97.00" departLane="-218680176#1_0" departPos="5.10" departSpeed="0.00" departDelay="1.71" arrival="229.00" arrivalLane="226276377#0_0" arrivalPos="135.52" arrivalSpeed="12.41" duration="132.00" routeLength="1117.57" waitingTime="32.00" waitingCount="2" stopTime="0.00" timeLoss="54.72" rerouteNo="0" devices="tripinfo_45" vType="DEFAULT_VEHTYPE" speedFactor="0.98" vaporized=""/>
    <tripinfo id="78" depart="166.00" departLane="-661251539_0" departPos="5.10" departSpeed="0.00" departDelay="0.82" arrival="231.00" arrivalLane="226276377#0_0" arrivalPos="135.52" arrivalSpeed="12.69" duration="65.00" routeLength="783.10" waitingTime="0.00" waitingCount="0" stopTime="0.00" timeLoss="9.72" rerouteNo="0" devices="tripinfo_78" vType="DEFAULT_VEHTYPE" speedFactor="1.00" vaporized=""/>
    <tripinfo id="17" depart="36.00" departLane="-661251539_0" departPos="5.10" departSpeed="0.00" departDelay="0.00" arrival="240.00" arrivalLane="218680176#0_1" arrivalPos="98.94" arrivalSpeed="15.00" duration="204.00" routeLength="1001.21" waitingTime="117.00" waitingCount="2" stopTime="0.00" timeLoss="135.82" rerouteNo="0" devices="tripinfo_17" vType="DEFAULT_VEHTYPE" speedFactor="1.09" vaporized=""/>
    <tripinfo id="5" depart="11.00" departLane="-226276377#1_0" departPos="5.10" departSpeed="0.00" departDelay="0.41" arrival="241.00" arrivalLane="218680176#0_1" arrivalPos="98.94" arrivalSpeed="14.35" duration="230.00" routeLength="1158.55" waitingTime="135.00" waitingCount="2" stopTime="0.00" timeLoss="156.06" rerouteNo="0" devices="tripinfo_5" vType="DEFAULT_VEHTYPE" speedFactor="1.09" vaporized=""/>
    <tripinfo id="76" depart="161.00" departLane="-661251539_0" departPos="5.10" departSpeed="0.00" departDelay="0.06" arrival="244.00" arrivalLane="218680176#0_1" arrivalPos="98.94" arrivalSpeed="13.64" duration="83.00" routeLength="1001.21" waitingTime="0.00" waitingCount="0" stopTime="0.00" timeLoss="11.56" rerouteNo="0" devices="tripinfo_76" vType="DEFAULT_VEHTYPE" speedFactor="1.03" vaporized=""/>
    <tripinfo id="64" depart="136.00" departLane="978867529_0" departPos="5.10" departSpeed="0.00" departDelay="0.47" arrival="248.00" arrivalLane="39907424_0" arrivalPos="316.44" arrivalSpeed="14.44" duration="112.00" routeLength="1216.15" waitingTime="19.00" waitingCount="1" stopTime="0.00" timeLoss="35.97" rerouteNo="0" devices="tripinfo_64" vType="DEFAULT_VEHTYPE" speedFactor="1.08" vaporized=""/>
    <tripinfo id="41" depart="88.00" departLane="65746828#0_0" departPos="5.10" departSpeed="0.00" departDelay="1.18" arrival="255.00" arrivalLane="450554042#0_0" arrivalPos="622.66" arrivalSpeed="13.32" duration="167.00" routeLength="1340.72" waitingTime="49.00" waitingCount="1" stopTime="0.00" timeLoss="64.47" rerouteNo="0" devices="tripinfo_41" vType="DEFAULT_VEHTYPE" speedFactor="0.82" vaporized=""/>
    <tripinfo id="49" depart="105.00" departLane="E8_0" departPos="5.10" departSpeed="0.00" departDelay="1.24" arrival="264.00" arrivalLane="39907424_0" arrivalPos="316.44" arrivalSpeed="13.12" duration="159.00" routeLength="1303.68" waitingTime="49.00" waitingCount="2" stopTime="0.00" timeLoss="67.69" rerouteNo="0" devices="tripinfo_49" vType="DEFAULT_VEHTYPE" speedFactor="0.99" vaporized=""/>
    <tripinfo id="57" depart="121.00" departLane="E8_0" departPos="5.10" departSpeed="0.00" departDelay="0.29" arrival="266.00" arrivalLane="39907424_0" arrivalPos="316.44" arrivalSpeed="14.66" duration="145.00" routeLength="1303.68" waitingTime="36.00" waitingCount="2" stopTime="0.00" timeLoss="60.56" rerouteNo="0" devices="tripinfo_57" vType="DEFAULT_VEHTYPE" speedFactor="1.08" vaporized=""/>
    <tripinfo id="75" depart="159.00" departLane="E8_0" departPos="5.10" departSpeed="0.00" departDelay="0.18" arrival="266.00" arrivalLane="226276377#0_1" arrivalPos="135.52" arrivalSpeed="15.75" duration="107.00" routeLength="784.51" waitingTime="48.00" waitingCount="1" stopTime="0.00" timeLoss="59.26" rerouteNo="0" devices="tripinfo_75" vType="DEFAULT_VEHTYPE" speedFactor="1.20" vaporized=""/>
    <tripinfo id="85" depart="180.00" departLane="E8_0" departPos="5.10" departSpeed="0.00" departDelay="0.00" arrival="269.00" arrivalLane="226276377#0_1" arrivalPos="135.52" arrivalSpeed="14.14" duration="89.00" routeLength="784.51" waitingTime="27.00" waitingCount="1" stopTime="0.00" timeLoss="36.25" rerouteNo="0" devices="tripinfo_85" vType="DEFAULT_VEHTYPE" speedFactor="1.10" vaporized=""/>
    <tripinfo id="90" depart="191.00" departLane="666135205#0_0" departPos="5.10" departSpeed="0.00" departDelay="0.41" arrival="270.00" arrivalLane="231177697#0_0" arrivalPos="74.44" arrivalSpeed="13.28" duration="79.00" routeLength="649.17" waitingTime="16.00" waitingCount="1" stopTime="0.00" timeLoss="30.96" rerouteNo="0" devices="tripinfo_90" vType="DEFAULT_VEHTYPE" speedFactor="1.01" vaporized=""/>
    <tripinfo id="44" depart="94.00" departLane="-218680176#1_0" departPos="5.10" departSpeed="0.00" departDelay="0.82" arrival="276.00" arrivalLane="-256961141#1_1" arrivalPos="204.72" arrivalSpeed="11.73" duration="182.00" routeLength="1207.38" waitingTime="66.00" waitingCount="3" stopTime="0.00" timeLoss="88.46" rerouteNo="0" devices="tripinfo_44" vType="DEFAULT_VEHTYPE" speedFactor="0.88" vaporized=""/>
    <tripinfo id="79" depart="168.00" departLane="-231177697#2_0" departPos="5.10" departSpeed="0.00" departDelay="0.71" arrival="277.00" arrivalLane="153964138#0_0" arrivalPos="337.99" arrivalSpeed="13.17" duration="109.00" routeLength="417.38" waitingTime="69.00" waitingCount="1" stopTime="0.00" timeLoss="76.32" rerouteNo="0" devices="tripinfo_79" vType="DEFAULT_VEHTYPE" speedFactor="0.82" vaporized=""/>
    <tripinfo id="9" depart="20.00" departLane="978867529_0" departPos="5.10" departSpeed="0.00" departDelay="0.94" arrival="278.00" arrivalLane="-256961141#1_1" arrivalPos="204.72" arrivalSpeed="15.40" duration="258.00" routeLength="1459.36" waitingTime="155.00" waitingCount="2" stopTime="0.00" timeLoss="181.25" rerouteNo="0" devices="tripinfo_9" vType="DEFAULT_VEHTYPE" speedFactor="1.26" vaporized=""/>
    <tripinfo id="69" depart="147.00" departLane="666135205#0_0" departPos="5.10" departSpeed="0.00" departDelay="0.88" arrival="278.00" arrivalLane="153964138#0_2" arrivalPos="337.99" arrivalSpeed="17.18" duration="131.00" routeLength="924.87" waitingTime="59.00" waitingCount="1" stopTime="0.00" timeLoss="72.68" rerouteNo="0" devices="tripinfo_69" vType="DEFAULT_VEHTYPE" speedFactor="1.09" vaporized=""/>
    <tripinfo id="42" depart="89.00" departLane="-661251539_0" departPos="5.10" departSpeed="0.00" departDelay="0.06" arrival="279.00" arrivalLane="153964138#0_0" arrivalPos="337.99" arrivalSpeed="15.25" duration="190.00" routeLength="1239.04" waitingTime="80.00" waitingCount="3" stopTime="0.00" timeLoss="101.89" rerouteNo="0" devices="tripinfo_42" vType="DEFAULT_VEHTYPE" speedFactor="0.97" vaporized=""/>
    <tripinfo id="82" depart="174.00" departLane="978867529_0" departPos="5.10" departSpeed="0.00" departDelay="0.35" arrival="279.00" arrivalLane="-256961141#1_1" arrivalPos="204.72" arrivalSpeed="13.97" duration="105.00" routeLength="1459.36" waitingTime="0.00" waitingCount="0" stopTime="0.00" timeLoss="16.17" rerouteNo="0" devices="tripinfo_82" vType="DEFAULT_VEHTYPE" speedFactor="1.08" vaporized=""/>
    <tripinfo id="56" depart="119.00" departLane="256961141#0_0" departPos="5.10" departSpeed="0.00" departDelay="0.41" arrival="281.00" arrivalLane="153964138#0_1" arrivalPos="337.99" arrivalSpeed="14.74" duration="162.00" routeLength="1439.25" waitingTime="41.00" waitingCount="1" stopTime="0.00" timeLoss="56.97" rerouteNo="0" devices="tripinfo_56" vType="DEFAULT_VEHTYPE" speedFactor="0.92" vaporized=""/>
    <tripinfo id="72" depart="153.00" departLane="-661251539_0" departPos="5.10" departSpeed="0.00" departDelay="0.53" arrival="281.00" arrivalLane="153964138#0_0" arrivalPos="337.99" arrivalSpeed="19.12" duration="128.00" routeLength="1239.04" waitingTime="32.00" waitingCount="2" stopTime="0.00" timeLoss="60.50" rerouteNo="0" devices="tripinfo_72" vType="DEFAULT_VEHTYPE" speedFactor="1.28" vaporized=""/>
    <tripinfo id="86" depart="183.00" departLane="256961141#0_0" departPos="5.10" departSpeed="0.00" departDelay="0.88" arrival="284.00" arrivalLane="39907424_0" arrivalPos="316.44" arrivalSpeed="12.68" duration="101.00" routeLength="873.95" waitingTime="24.00" waitingCount="1" stopTime="0.00" timeLoss="37.94" rerouteNo="0" devices="tripinfo_86" vType="DEFAULT_VEHTYPE" speedFactor="0.95" vaporized=""/>
    <tripinfo id="73" depart="155.00" departLane="256961141#0_0" departPos="5.10" departSpeed="0.00" departDelay="0.41" arrival="300.00" arrivalLane="231177697#0_0" arrivalPos="74.44" arrivalSpeed="13.41" duration="145.00" routeLength="1163.55" waitingTime="48.00" waitingCount="2" stopTime="0.00" timeLoss="65.88" rerouteNo="0" devices="tripinfo_73" vType="DEFAULT_VEHTYPE" speedFactor="1.03" vaporized=""/>
    <tripinfo id="29" depart="63.00" departLane="-226276377#1_0" departPos="5.10" departSpeed="0.00" departDelay="1.59" arrival="318.00" arrivalLane="210831347#0_1" arrivalPos="149.88" arrivalSpeed="13.65" duration="255.00" routeLength="888.52" waitingTime="179.00" waitingCount="2" stopTime="0.00" timeLoss="198.11" rerouteNo="0" devices="tripinfo_29" vType="DEFAULT_VEHTYPE" speedFactor="1.07" vaporized=""/>
    <tripinfo id="114" depart="242.00" departLane="-226276377#1_0" departPos="5.10" departSpeed="0.00" departDelay="0.59" arrival="320.00" arrivalLane="450554042#0_0" arrivalPos="622.66" arrivalSpeed="14.56" duration="78.00" routeLength="763.53" waitingTime="13.00" waitingCount="1" stopTime="0.00" timeLoss="24.81" rerouteNo="0" devices="tripinfo_114" vType="DEFAULT_VEHTYPE" speedFactor="0.92" vaporized=""/>
    <tripinfo id="53" depart="113.00" departLane="-226276377#1_0" departPos="5.10" departSpeed="0.00" departDelay="0.76" arrival="322.00" arrivalLane="210831347#0_1" arrivalPos="149.88" arrivalSpeed="11.86" duration="209.00" routeLength="888.52" waitingTime="127.00" waitingCount="2" stopTime="0.00" timeLoss="143.94" rerouteNo="0" devices="tripinfo_53" vType="DEFAULT_VEHTYPE" speedFactor="0.94" vaporized=""/>
    <tripinfo id="121" depart="257.00" departLane="256961141#0_0" departPos="5.10" departSpeed="0.00" departDelay="0.76" arrival="325.00" arrivalLane="450554042#0_0" arrivalPos="622.66" arrivalSpeed="13.90" duration="68.00" routeLength="853.74" waitingTime="0.00" waitingCount="0" stopTime="0.00" timeLoss="7.47" rerouteNo="0" devices="tripinfo_121" vType="DEFAULT_VEHTYPE" speedFactor="0.90" vaporized=""/>
    <tripinfo id="12" depart="26.00" departLane="E8_0" departPos="5.10" departSpeed="0.00" departDelay="0.59" arrival="326.00" arrivalLane="210831347#0_1" arrivalPos="149.88" arrivalSpeed="11.24" duration="300.00" routeLength="1367.17" waitingTime="167.00" waitingCount="2" stopTime="0.00" timeLoss="187.17" rerouteNo="0" devices="tripinfo_12" vType="DEFAULT_VEHTYPE" speedFactor="0.85" vaporized=""/>
    <tripinfo id="92" depart="195.00" departLane="-661251539_0" departPos="5.10" departSpeed="0.00" departDelay="0.18" arrival="327.00" arrivalLane="210831347#0_1" arrivalPos="149.88" arrivalSpeed="13.34" duration="132.00" routeLength="731.18" waitingTime="57.00" waitingCount="2" stopTime="0.00" timeLoss="81.37" rerouteNo="0" devices="tripinfo_92" vType="DEFAULT_VEHTYPE" speedFactor="1.06" vaporized=""/>
    <tripinfo id="106" depart="225.00" departLane="256961141#0_0" departPos="5.10" departSpeed="0.00" departDelay="0.53" arrival="329.00" arrivalLane="210831347#0_1" arrivalPos="149.88" arrivalSpeed="15.53" duration="104.00" routeLength="937.44" waitingTime="27.00" waitingCount="1" stopTime="0.00" timeLoss="46.30" rerouteNo="0" devices="tripinfo_106" vType="DEFAULT_VEHTYPE" speedFactor="1.13" vaporized=""/>
    <tripinfo id="22" depart="47.00" departLane="-218680176#1_0" departPos="5.10" departSpeed="0.00" departDelay="0.41" arrival="331.00" arrivalLane="210831345#1_0" arrivalPos="264.29" arrivalSpeed="11.34" duration="284.00" routeLength="699.94" waitingTime="205.00" waitingCount="3" stopTime="0.00" timeLoss="226.17" rerouteNo="0" devices="tripinfo_22" vType="DEFAULT_VEHTYPE" speedFactor="0.89" vaporized=""/>
    <tripinfo id="23" depart="50.00" departLane="-218680176#1_0" departPos="5.10" departSpeed="0.00" departDelay="1.29" arrival="332.00" arrivalLane="210831345#1_1" arrivalPos="264.29" arrivalSpeed="12.88" duration="282.00" routeLength="699.94" waitingTime="203.00" waitingCount="4" stopTime="0.00" timeLoss="229.76" rerouteNo="0" devices="tripinfo_23" vType="DEFAULT_VEHTYPE" speedFactor="0.98" vaporized=""/>
    <tripinfo id="36" depart="77.00" departLane="978867529_0" departPos="5.10" departSpeed="0.00" departDelay="0.76" arrival="334.00" arrivalLane="210831345#1_0" arrivalPos="264.29" arrivalSpeed="15.40" duration="257.00" routeLength="951.92" waitingTime="177.00" waitingCount="2" stopTime="0.00" timeLoss="201.26" rerouteNo="0" devices="tripinfo_36" vType="DEFAULT_VEHTYPE" speedFactor="1.17" vaporized=""/>
    <tripinfo id="62" depart="132.00" departLane="-218680176#1_0" departPos="5.10" departSpeed="0.00" departDelay="0.71" arrival="335.00" arrivalLane="210831345#1_0" arrivalPos="264.29" arrivalSpeed="12.16" duration="203.00" routeLength="699.94" waitingTime="127.00" waitingCount="2" stopTime="0.00" timeLoss="144.85" rerouteNo="0" devices="tripinfo_62" vType="DEFAULT_VEHTYPE" speedFactor="0.89" vaporized=""/>
    <tripinfo id="55" depart="117.00" departLane="978867529_0" departPos="5.10" departSpeed="0.00" departDelay="0.53" arrival="337.00" arrivalLane="210831345#1_1" arrivalPos="264.29" arrivalSpeed="15.30" duration="220.00" routeLength="951.92" waitingTime="137.00" waitingCount="2" stopTime="0.00" timeLoss="160.59" rerouteNo="0" devices="tripinfo_55" vType="DEFAULT_VEHTYPE" speedFactor="1.12" vaporized=""/>
    <tripinfo id="132" depart="280.00" departLane="978867529_0" departPos="5.10" departSpeed="0.00" departDelay="0.47" arrival="338.00" arrivalLane="231177697#0_1" arrivalPos="74.44" arrivalSpeed="13.75" duration="58.00" routeLength="437.06" waitingTime="21.00" waitingCount="1" stopTime="0.00" timeLoss="30.83" rerouteNo="0" devices="tripinfo_132" vType="DEFAULT_VEHTYPE" speedFactor="1.06" vaporized=""/>
    <tripinfo id="21" depart="45.00" departLane="-231177697#2_0" departPos="5.10" departSpeed="0.00" departDelay="0.53" arrival="339.00" arrivalLane="210831345#1_1" arrivalPos="264.29" arrivalSpeed="14.49" duration="294.00" routeLength="696.92" waitingTime="223.00" waitingCount="2" stopTime="0.00" timeLoss="244.57" rerouteNo="0" devices="tripinfo_21" vType="DEFAULT_VEHTYPE" speedFactor="1.05" vaporized=""/>
    <tripinfo id="51" depart="108.00" departLane="666135205#0_0" departPos="5.10" departSpeed="0.00" departDelay="0.00" arrival="339.00" arrivalLane="218680176#0_1" arrivalPos="98.94" arrivalSpeed="15.82" duration="231.00" routeLength="693.09" waitingTime="168.00" waitingCount="2" stopTime="0.00" timeLoss="186.60" rerouteNo="0" devices="tripinfo_51" vType="DEFAULT_VEHTYPE" speedFactor="1.15" vaporized=""/>
    <tripinfo id="34" depart="72.00" departLane="-231177697#2_0" departPos="5.10" departSpeed="0.00" departDelay="0.00" arrival="342.00" arrivalLane="210831345#1_1" arrivalPos="264.29" arrivalSpeed="12.34" duration="270.00" routeLength="696.92" waitingTime="191.00" waitingCount="2" stopTime="0.00" timeLoss="215.06" rerouteNo="0" devices="tripinfo_34" vType="DEFAULT_VEHTYPE" speedFactor="0.94" vaporized=""/>
    <tripinfo id="60" depart="128.00" departLane="666135205#0_0" departPos="5.10" departSpeed="0.00" departDelay="0.94" arrival="342.00" arrivalLane="218680176#0_1" arrivalPos="98.94" arrivalSpeed="13.50" duration="214.00" routeLength="693.09" waitingTime="143.00" waitingCount="2" stopTime="0.00" timeLoss="163.15" rerouteNo="0" devices="tripinfo_60" vType="DEFAULT_VEHTYPE" speedFactor="1.00" vaporized=""/>
    <tripinfo id="39" depart="83.00" departLane="-231177697#2_0" departPos="5.10" departSpeed="0.00" departDelay="0.41" arrival="343.00" arrivalLane="210831345#1_1" arrivalPos="264.29" arrivalSpeed="13.24" duration="260.00" routeLength="696.92" waitingTime="183.00" waitingCount="3" stopTime="0.00" timeLoss="208.96" rerouteNo="0" devices="tripinfo_39" vType="DEFAULT_VEHTYPE" speedFactor="1.00" vaporized=""/>
    <tripinfo id="48" depart="102.00" departLane="E8_0" departPos="5.10" departSpeed="0.00" departDelay="0.35" arrival="344.00" arrivalLane="218680176#0_1" arrivalPos="98.94" arrivalSpeed="14.90" duration="242.00" routeLength="1637.20" waitingTime="106.00" waitingCount="2" stopTime="0.00" timeLoss="140.07" rerouteNo="0" devices="tripinfo_48" vType="DEFAULT_VEHTYPE" speedFactor="1.13" vaporized=""/>