<?xml version="1.0" encoding="UTF-8"?>

<!-- generated on 2024-09-03 02:44:11 by Eclipse SUMO sumo Version 1.20.0
<configuration xmlns:xsi="http://www.w3.org/2001/XMLSchema-instance" xsi:noNamespaceSchemaLocation="http://sumo.dlr.de/xsd/sumoConfiguration.xsd">

    <input>
        <net-file value="c:\self\School\Master\Disertation\code\RESCO\resco_benchmark\environments/unirii/osm.net.xml.gz"/>
        <route-files value="c:\self\School\Master\Disertation\code\RESCO\resco_benchmark\environments/unirii/osm.passenger.trips.xml"/>
        <additional-files value="c:\self\School\Master\Disertation\code\RESCO\resco_benchmark\environments/unirii/osm.poly.xml.gz"/>
    </input>

    <output>
        <tripinfo-output value="C:\self\School\Master\Disertation\code\RESCO\results\IA2C-tr0-unirii-0-drq_norm-wait_norm\tripinfo_46.xml"/>
        <tripinfo-output.write-unfinished value="true"/>
    </output>

    <processing>
        <ignore-route-errors value="true"/>
        <time-to-teleport value="-1"/>
    </processing>

    <routing>
        <device.rerouting.adaptation-steps value="18"/>
        <device.rerouting.adaptation-interval value="10"/>
    </routing>

    <report>
        <verbose value="true"/>
        <no-warnings value="True"/>
        <duration-log.statistics value="true"/>
        <no-step-log value="True"/>
    </report>

    <traci_server>
        <remote-port value="52288"/>
    </traci_server>

    <random_number>
        <random value="true"/>
    </random_number>

    <gui_only>
        <gui-settings-file value="c:\self\School\Master\Disertation\code\RESCO\resco_benchmark\environments/unirii/osm.view.xml"/>
    </gui_only>

</configuration>
-->

<tripinfos xmlns:xsi="http://www.w3.org/2001/XMLSchema-instance" xsi:noNamespaceSchemaLocation="http://sumo.dlr.de/xsd/tripinfo_file.xsd">
    <tripinfo id="10" depart="23.00" departLane="978867529_0" departPos="5.10" departSpeed="0.00" departDelay="1.82" arrival="55.00" arrivalLane="231177697#0_1" arrivalPos="74.44" arrivalSpeed="14.49" duration="32.00" routeLength="437.06" waitingTime="0.00" waitingCount="0" stopTime="0.00" timeLoss="5.59" rerouteNo="0" devices="tripinfo_10" vType="DEFAULT_VEHTYPE" speedFactor="1.09" vaporized=""/>
    <tripinfo id="4" depart="9.00" departLane="-661251539_0" departPos="5.10" departSpeed="0.00" departDelay="0.53" arrival="76.00" arrivalLane="-256961141#1_1" arrivalPos="204.72" arrivalSpeed="13.47" duration="67.00" routeLength="872.91" waitingTime="0.00" waitingCount="0" stopTime="0.00" timeLoss="8.51" rerouteNo="0" devices="tripinfo_4" vType="DEFAULT_VEHTYPE" speedFactor="1.03" vaporized=""/>
    <tripinfo id="6" depart="13.00" departLane="-218680176#1_0" departPos="5.10" departSpeed="0.00" departDelay="0.29" arrival="79.00" arrivalLane="153964138#0_2" arrivalPos="337.99" arrivalSpeed="17.07" duration="66.00" routeLength="462.27" waitingTime="26.00" waitingCount="1" stopTime="0.00" timeLoss="36.75" rerouteNo="0" devices="tripinfo_6" vType="DEFAULT_VEHTYPE" speedFactor="1.03" vaporized=""/>
    <tripinfo id="0" depart="0.00" departLane="65746828#0_0" departPos="5.10" departSpeed="0.00" departDelay="0.00" arrival="80.00" arrivalLane="-256961141#1_1" arrivalPos="204.72" arrivalSpeed="13.51" duration="80.00" routeLength="931.50" waitingTime="6.00" waitingCount="1" stopTime="0.00" timeLoss="17.93" rerouteNo="0" devices="tripinfo_0" vType="DEFAULT_VEHTYPE" speedFactor="1.01" vaporized=""/>
    <tripinfo id="15" depart="33.00" departLane="978867529_0" departPos="5.10" departSpeed="0.00" departDelay="1.24" arrival="88.00" arrivalLane="231177697#0_1" arrivalPos="74.44" arrivalSpeed="14.49" duration="55.00" routeLength="437.06" waitingTime="17.00" waitingCount="1" stopTime="0.00" timeLoss="28.06" rerouteNo="0" devices="tripinfo_15" vType="DEFAULT_VEHTYPE" speedFactor="1.06" vaporized=""/>
    <tripinfo id="7" depart="15.00" departLane="65746828#0_0" departPos="5.10" departSpeed="0.00" departDelay="0.18" arrival="89.00" arrivalLane="218680176#0_1" arrivalPos="98.94" arrivalSpeed="14.05" duration="74.00" routeLength="602.71" waitingTime="22.00" waitingCount="1" stopTime="0.00" timeLoss="32.14" rerouteNo="0" devices="tripinfo_7" vType="DEFAULT_VEHTYPE" speedFactor="1.06" vaporized=""/>
    <tripinfo id="3" depart="7.00" departLane="E8_0" departPos="5.10" departSpeed="0.00" departDelay="0.65" arrival="95.00" arrivalLane="-256961141#1_0" arrivalPos="204.72" arrivalSpeed="13.92" duration="88.00" routeLength="832.89" waitingTime="21.00" waitingCount="1" stopTime="0.00" timeLoss="32.09" rerouteNo="0" devices="tripinfo_3" vType="DEFAULT_VEHTYPE" speedFactor="1.08" vaporized=""/>
    <tripinfo id="32" depart="68.00" departLane="978867529_0" departPos="5.10" departSpeed="0.00" departDelay="0.24" arrival="100.00" arrivalLane="231177697#0_1" arrivalPos="74.44" arrivalSpeed="14.75" duration="32.00" routeLength="437.06" waitingTime="0.00" waitingCount="0" stopTime="0.00" timeLoss="5.72" rerouteNo="0" devices="tripinfo_32" vType="DEFAULT_VEHTYPE" speedFactor="1.08" vaporized=""/>
    <tripinfo id="17" depart="36.00" departLane="-661251539_0" departPos="5.10" departSpeed="0.00" departDelay="0.00" arrival="142.00" arrivalLane="218680176#0_1" arrivalPos="98.94" arrivalSpeed="13.32" duration="106.00" routeLength="1001.21" waitingTime="15.00" waitingCount="1" stopTime="0.00" timeLoss="30.33" rerouteNo="0" devices="tripinfo_17" vType="DEFAULT_VEHTYPE" speedFactor="0.98" vaporized=""/>
    <tripinfo id="40" depart="85.00" departLane="65746828#0_0" departPos="5.10" departSpeed="0.00" departDelay="0.29" arrival="152.00" arrivalLane="210831345#1_0" arrivalPos="264.29" arrivalSpeed="16.25" duration="67.00" routeLength="446.75" waitingTime="28.00" waitingCount="1" stopTime="0.00" timeLoss="39.41" rerouteNo="0" devices="tripinfo_40" vType="DEFAULT_VEHTYPE" speedFactor="1.19" vaporized=""/>
    <tripinfo id="51" depart="108.00" departLane="666135205#0_0" departPos="5.10" departSpeed="0.00" departDelay="0.00" arrival="164.00" arrivalLane="218680176#0_1" arrivalPos="98.94" arrivalSpeed="14.60" duration="56.00" routeLength="693.09" waitingTime="0.00" waitingCount="0" stopTime="0.00" timeLoss="9.33" rerouteNo="0" devices="tripinfo_51" vType="DEFAULT_VEHTYPE" speedFactor="1.11" vaporized=""/>
    <tripinfo id="27" depart="58.00" departLane="65746828#0_0" departPos="5.10" departSpeed="0.00" departDelay="0.82" arrival="174.00" arrivalLane="226276377#0_0" arrivalPos="135.52" arrivalSpeed="15.35" duration="116.00" routeLength="841.69" waitingTime="54.00" waitingCount="1" stopTime="0.00" timeLoss="67.43" rerouteNo="0" devices="tripinfo_27" vType="DEFAULT_VEHTYPE" speedFactor="1.15" vaporized=""/>
    <tripinfo id="26" depart="56.00" departLane="-231177697#2_0" departPos="5.10" departSpeed="0.00" departDelay="0.94" arrival="187.00" arrivalLane="450554042#0_0" arrivalPos="622.66" arrivalSpeed="15.24" duration="131.00" routeLength="1613.58" waitingTime="8.00" waitingCount="1" stopTime="0.00" timeLoss="22.93" rerouteNo="0" devices="tripinfo_26" vType="DEFAULT_VEHTYPE" speedFactor="0.96" vaporized=""/>
    <tripinfo id="31" depart="66.00" departLane="65746828#0_0" departPos="5.10" departSpeed="0.00" departDelay="0.35" arrival="187.00" arrivalLane="231177697#0_0" arrivalPos="74.44" arrivalSpeed="13.35" duration="121.00" routeLength="558.79" waitingTime="69.00" waitingCount="1" stopTime="0.00" timeLoss="80.15" rerouteNo="0" devices="tripinfo_31" vType="DEFAULT_VEHTYPE" speedFactor="1.02" vaporized=""/>
    <tripinfo id="2" depart="5.00" departLane="666135205#0_0" departPos="5.10" departSpeed="0.00" departDelay="0.76" arrival="191.00" arrivalLane="231177697#0_0" arrivalPos="74.44" arrivalSpeed="14.45" duration="186.00" routeLength="649.17" waitingTime="122.00" waitingCount="2" stopTime="0.00" timeLoss="142.02" rerouteNo="0" devices="tripinfo_2" vType="DEFAULT_VEHTYPE" speedFactor="1.10" vaporized=""/>
    <tripinfo id="61" depart="130.00" departLane="978867529_0" departPos="5.10" departSpeed="0.00" departDelay="0.82" arrival="194.00" arrivalLane="218680176#0_0" arrivalPos="98.94" arrivalSpeed="12.00" duration="64.00" routeLength="442.15" waitingTime="23.00" waitingCount="1" stopTime="0.00" timeLoss="32.74" rerouteNo="0" devices="tripinfo_61" vType="DEFAULT_VEHTYPE" speedFactor="0.93" vaporized=""/>
    <tripinfo id="12" depart="26.00" departLane="E8_0" departPos="5.10" departSpeed="0.00" departDelay="0.59" arrival="197.00" arrivalLane="210831347#0_1" arrivalPos="149.88" arrivalSpeed="10.42" duration="171.00" routeLength="1367.17" waitingTime="43.00" waitingCount="1" stopTime="0.00" timeLoss="57.23" rerouteNo="0" devices="tripinfo_12" vType="DEFAULT_VEHTYPE" speedFactor="0.84" vaporized=""/>
    <tripinfo id="11" depart="24.00" departLane="-661251539_0" departPos="5.10" departSpeed="0.00" departDelay="0.71" arrival="203.00" arrivalLane="153964138#0_1" arrivalPos="337.99" arrivalSpeed="16.62" duration="179.00" routeLength="1239.04" waitingTime="73.00" waitingCount="2" stopTime="0.00" timeLoss="94.73" rerouteNo="0" devices="tripinfo_11" vType="DEFAULT_VEHTYPE" speedFactor="1.02" vaporized=""/>
    <tripinfo id="25" depart="53.00" departLane="-661251539_0" departPos="5.10" departSpeed="0.00" departDelay="0.06" arrival="205.00" arrivalLane="153964138#0_0" arrivalPos="337.99" arrivalSpeed="16.16" duration="152.00" routeLength="1239.04" waitingTime="44.00" waitingCount="1" stopTime="0.00" timeLoss="66.52" rerouteNo="0" devices="tripinfo_25" vType="DEFAULT_VEHTYPE" speedFactor="1.00" vaporized=""/>
    <tripinfo id="21" depart="45.00" departLane="-231177697#2_0" departPos="5.10" departSpeed="0.00" departDelay="0.53" arrival="207.00" arrivalLane="210831345#1_1" arrivalPos="264.29" arrivalSpeed="12.59" duration="162.00" routeLength="696.92" waitingTime="97.00" waitingCount="1" stopTime="0.00" timeLoss="110.72" rerouteNo="0" devices="tripinfo_21" vType="DEFAULT_VEHTYPE" speedFactor="0.99" vaporized=""/>
    <tripinfo id="1" depart="3.00" departLane="-231177697#2_0" departPos="5.10" departSpeed="0.00" departDelay="0.88" arrival="208.00" arrivalLane="210831345#1_0" arrivalPos="264.29" arrivalSpeed="11.55" duration="205.00" routeLength="696.92" waitingTime="131.00" waitingCount="1" stopTime="0.00" timeLoss="143.02" rerouteNo="0" devices="tripinfo_1" vType="DEFAULT_VEHTYPE" speedFactor="0.83" vaporized=""/>
    <tripinfo id="22" depart="47.00" departLane="-218680176#1_0" departPos="5.10" departSpeed="0.00" departDelay="0.41" arrival="210.00" arrivalLane="210831345#1_1" arrivalPos="264.29" arrivalSpeed="12.17" duration="163.00" routeLength="699.94" waitingTime="89.00" waitingCount="2" stopTime="0.00" timeLoss="105.27" rerouteNo="0" devices="tripinfo_22" vType="DEFAULT_VEHTYPE" speedFactor="0.89" vaporized=""/>
    <tripinfo id="34" depart="72.00" departLane="-231177697#2_0" departPos="5.10" departSpeed="0.00" departDelay="0.00" arrival="211.00" arrivalLane="210831345#1_0" arrivalPos="264.29" arrivalSpeed="13.56" duration="139.00" routeLength="696.92" waitingTime="68.00" waitingCount="2" stopTime="0.00" timeLoss="88.75" rerouteNo="0" devices="tripinfo_34" vType="DEFAULT_VEHTYPE" speedFactor="1.02" vaporized=""/>
    <tripinfo id="39" depart="83.00" departLane="-231177697#2_0" departPos="5.10" departSpeed="0.00" departDelay="0.41" arrival="212.00" arrivalLane="210831345#1_1" arrivalPos="264.29" arrivalSpeed="13.93" duration="129.00" routeLength="696.92" waitingTime="59.00" waitingCount="2" stopTime="0.00" timeLoss="82.05" rerouteNo="0" devices="tripinfo_39" vType="DEFAULT_VEHTYPE" speedFactor="1.09" vaporized=""/>
    <tripinfo id="42" depart="89.00" departLane="-661251539_0" departPos="5.10" departSpeed="0.00" departDelay="0.06" arrival="213.00" arrivalLane="153964138#0_0" arrivalPos="337.99" arrivalSpeed="13.06" duration="124.00" routeLength="1239.04" waitingTime="2.00" waitingCount="1" stopTime="0.00" timeLoss="21.30" rerouteNo="0" devices="tripinfo_42" vType="DEFAULT_VEHTYPE" speedFactor="0.84" vaporized=""/>
    <tripinfo id="23" depart="50.00" departLane="-218680176#1_0" departPos="5.10" departSpeed="0.00" departDelay="1.29" arrival="214.00" arrivalLane="210831345#1_0" arrivalPos="264.29" arrivalSpeed="14.60" duration="164.00" routeLength="699.94" waitingTime="89.00" waitingCount="3" stopTime="0.00" timeLoss="117.76" rerouteNo="0" devices="tripinfo_23" vType="DEFAULT_VEHTYPE" speedFactor="1.13" vaporized=""/>
    <tripinfo id="38" depart="81.00" departLane="E8_0" departPos="5.10" departSpeed="0.00" departDelay="0.53" arrival="215.00" arrivalLane="218680176#0_1" arrivalPos="98.94" arrivalSpeed="14.13" duration="134.00" routeLength="1637.20" waitingTime="9.00" waitingCount="1" stopTime="0.00" timeLoss="24.66" rerouteNo="0" devices="tripinfo_38" vType="DEFAULT_VEHTYPE" speedFactor="1.05" vaporized=""/>
    <tripinfo id="41" depart="88.00" departLane="65746828#0_0" departPos="5.10" departSpeed="0.00" departDelay="1.18" arrival="216.00" arrivalLane="450554042#0_0" arrivalPos="622.66" arrivalSpeed="15.11" duration="128.00" routeLength="1340.72" waitingTime="25.00" waitingCount="1" stopTime="0.00" timeLoss="40.30" rerouteNo="0" devices="tripinfo_41" vType="DEFAULT_VEHTYPE" speedFactor="0.95" vaporized=""/>
    <tripinfo id="30" depart="64.00" departLane="E8_0" departPos="5.10" departSpeed="0.00" departDelay="0.47" arrival="217.00" arrivalLane="226276377#0_1" arrivalPos="135.52" arrivalSpeed="14.28" duration="153.00" routeLength="784.51" waitingTime="90.00" waitingCount="1" stopTime="0.00" timeLoss="100.53" rerouteNo="0" devices="tripinfo_30" vType="DEFAULT_VEHTYPE" speedFactor="1.09" vaporized=""/>
    <tripinfo id="46" depart="98.00" departLane="978867529_0" departPos="5.10" departSpeed="0.00" departDelay="0.59" arrival="220.00" arrivalLane="210831347#0_0" arrivalPos="149.88" arrivalSpeed="14.41" duration="122.00" routeLength="812.56" waitingTime="50.00" waitingCount="2" stopTime="0.00" timeLoss="69.89" rerouteNo="0" devices="tripinfo_46" vType="DEFAULT_VEHTYPE" speedFactor="1.08" vaporized=""/>
    <tripinfo id="20" depart="43.00" departLane="666135205#0_0" departPos="5.10" departSpeed="0.00" departDelay="0.65" arrival="222.00" arrivalLane="-256961141#1_1" arrivalPos="204.72" arrivalSpeed="13.30" duration="179.00" routeLength="1068.72" waitingTime="96.00" waitingCount="1" stopTime="0.00" timeLoss="109.01" rerouteNo="0" devices="tripinfo_20" vType="DEFAULT_VEHTYPE" speedFactor="1.02" vaporized=""/>
    <tripinfo id="54" depart="115.00" departLane="256961141#0_0" departPos="5.10" departSpeed="0.00" departDelay="0.65" arrival="222.00" arrivalLane="450554042#0_1" arrivalPos="622.66" arrivalSpeed="17.28" duration="107.00" routeLength="853.74" waitingTime="43.00" waitingCount="1" stopTime="0.00" timeLoss="57.21" rerouteNo="0" devices="tripinfo_54" vType="DEFAULT_VEHTYPE" speedFactor="1.10" vaporized=""/>
    <tripinfo id="75" depart="159.00" departLane="E8_0" departPos="5.10" departSpeed="0.00" departDelay="0.18" arrival="222.00" arrivalLane="226276377#0_1" arrivalPos="135.52" arrivalSpeed="13.06" duration="63.00" routeLength="784.51" waitingTime="0.00" waitingCount="0" stopTime="0.00" timeLoss="6.65" rerouteNo="0" devices="tripinfo_75" vType="DEFAULT_VEHTYPE" speedFactor="1.02" vaporized=""/>
    <tripinfo id="13" depart="28.00" departLane="-218680176#1_0" departPos="5.10" departSpeed="0.00" departDelay="0.47" arrival="224.00" arrivalLane="-256961141#1_1" arrivalPos="204.72" arrivalSpeed="14.41" duration="196.00" routeLength="1207.38" waitingTime="96.00" waitingCount="3" stopTime="0.00" timeLoss="121.59" rerouteNo="0" devices="tripinfo_13" vType="DEFAULT_VEHTYPE" speedFactor="1.11" vaporized=""/>
    <tripinfo id="16" depart="34.00" departLane="256961141#0_0" departPos="5.10" departSpeed="0.00" departDelay="0.12" arrival="224.00" arrivalLane="450554042#0_0" arrivalPos="622.66" arrivalSpeed="14.89" duration="190.00" routeLength="853.74" waitingTime="122.00" waitingCount="1" stopTime="0.00" timeLoss="133.15" rerouteNo="0" devices="tripinfo_16" vType="DEFAULT_VEHTYPE" speedFactor="0.97" vaporized=""/>
    <tripinfo id="33" depart="70.00" departLane="-231177697#2_0" departPos="5.10" departSpeed="0.00" departDelay="0.12" arrival="226.00" arrivalLane="-256961141#1_1" arrivalPos="204.72" arrivalSpeed="15.27" duration="156.00" routeLength="1204.36" waitingTime="54.00" waitingCount="3" stopTime="0.00" timeLoss="83.55" rerouteNo="0" devices="tripinfo_33" vType="DEFAULT_VEHTYPE" speedFactor="1.13" vaporized=""/>
    <tripinfo id="49" depart="105.00" departLane="E8_0" departPos="5.10" departSpeed="0.00" departDelay="1.24" arrival="239.00" arrivalLane="39907424_0" arrivalPos="316.44" arrivalSpeed="9.07" duration="134.00" routeLength="1303.68" waitingTime="0.00" waitingCount="0" stopTime="0.00" timeLoss="11.92" rerouteNo="0" devices="tripinfo_49" vType="DEFAULT_VEHTYPE" speedFactor="0.74" vaporized=""/>
    <tripinfo id="50" depart="106.00" departLane="-218680176#1_0" departPos="5.10" departSpeed="0.00" departDelay="0.12" arrival="239.00" arrivalLane="231177697#0_0" arrivalPos="74.44" arrivalSpeed="10.93" duration="133.00" routeLength="205.97" waitingTime="94.00" waitingCount="3" stopTime="0.00" timeLoss="115.57" rerouteNo="0" devices="tripinfo_50" vType="DEFAULT_VEHTYPE" speedFactor="0.87" vaporized=""/>
    <tripinfo id="77" depart="164.00" departLane="-226276377#1_0" departPos="5.10" departSpeed="0.00" departDelay="0.94" arrival="245.00" arrivalLane="210831345#1_0" arrivalPos="264.29" arrivalSpeed="15.26" duration="81.00" routeLength="977.93" waitingTime="6.00" waitingCount="1" stopTime="0.00" timeLoss="22.34" rerouteNo="0" devices="tripinfo_77" vType="DEFAULT_VEHTYPE" speedFactor="1.15" vaporized=""/>
    <tripinfo id="68" depart="144.00" departLane="-218680176#1_0" departPos="5.10" departSpeed="0.00" departDelay="0.00" arrival="246.00" arrivalLane="231177697#0_0" arrivalPos="74.44" arrivalSpeed="14.08" duration="102.00" routeLength="205.97" waitingTime="57.00" waitingCount="3" stopTime="0.00" timeLoss="87.69" rerouteNo="0" devices="tripinfo_68" vType="DEFAULT_VEHTYPE" speedFactor="1.09" vaporized=""/>
    <tripinfo id="79" depart="168.00" departLane="-231177697#2_0" departPos="5.10" departSpeed="0.00" departDelay="0.71" arrival="247.00" arrivalLane="153964138#0_0" arrivalPos="337.99" arrivalSpeed="16.70" duration="79.00" routeLength="417.38" waitingTime="44.00" waitingCount="1" stopTime="0.00" timeLoss="53.59" rerouteNo="0" devices="tripinfo_79" vType="DEFAULT_VEHTYPE" speedFactor="1.07" vaporized=""/>
    <tripinfo id="64" depart="136.00" departLane="978867529_0" departPos="5.10" departSpeed="0.00" departDelay="0.47" arrival="253.00" arrivalLane="39907424_0" arrivalPos="316.44" arrivalSpeed="13.41" duration="117.00" routeLength="1216.15" waitingTime="16.00" waitingCount="1" stopTime="0.00" timeLoss="34.01" rerouteNo="0" devices="tripinfo_64" vType="DEFAULT_VEHTYPE" speedFactor="0.99" vaporized=""/>
    <tripinfo id="28" depart="60.00" departLane="-226276377#1_0" departPos="5.10" departSpeed="0.00" departDelay="0.71" arrival="263.00" arrivalLane="231177697#0_0" arrivalPos="74.44" arrivalSpeed="14.80" duration="203.00" routeLength="1114.63" waitingTime="116.00" waitingCount="2" stopTime="0.00" timeLoss="134.87" rerouteNo="0" devices="tripinfo_28" vType="DEFAULT_VEHTYPE" speedFactor="1.13" vaporized=""/>
    <tripinfo id="90" depart="191.00" departLane="666135205#0_0" departPos="5.10" departSpeed="0.00" departDelay="0.41" arrival="267.00" arrivalLane="231177697#0_0" arrivalPos="74.44" arrivalSpeed="12.58" duration="76.00" routeLength="649.17" waitingTime="12.00" waitingCount="1" stopTime="0.00" timeLoss="26.55" rerouteNo="0" devices="tripinfo_90" vType="DEFAULT_VEHTYPE" speedFactor="0.98" vaporized=""/>
    <tripinfo id="47" depart="100.00" departLane="-218680176#1_0" departPos="5.10" departSpeed="0.00" departDelay="0.47" arrival="271.00" arrivalLane="210831347#0_0" arrivalPos="149.88" arrivalSpeed="11.25" duration="171.00" routeLength="560.58" waitingTime="101.00" waitingCount="3" stopTime="0.00" timeLoss="122.86" rerouteNo="0" devices="tripinfo_47" vType="DEFAULT_VEHTYPE" speedFactor="0.89" vaporized=""/>
    <tripinfo id="35" depart="75.00" departLane="-226276377#1_0" departPos="5.10" departSpeed="0.00" departDelay="0.88" arrival="275.00" arrivalLane="450554042#0_0" arrivalPos="622.66" arrivalSpeed="12.73" duration="200.00" routeLength="763.53" waitingTime="130.00" waitingCount="1" stopTime="0.00" timeLoss="140.64" rerouteNo="0" devices="tripinfo_35" vType="DEFAULT_VEHTYPE" speedFactor="0.83" vaporized=""/>
    <tripinfo id="74" depart="157.00" departLane="-226276377#1_0" departPos="5.10" departSpeed="0.00" departDelay="0.29" arrival="277.00" arrivalLane="210831345#1_0" arrivalPos="264.29" arrivalSpeed="12.21" duration="120.00" routeLength="977.93" waitingTime="32.00" waitingCount="2" stopTime="0.00" timeLoss="49.93" rerouteNo="0" devices="tripinfo_74" vType="DEFAULT_VEHTYPE" speedFactor="0.97" vaporized=""/>
    <tripinfo id="69" depart="147.00" departLane="666135205#0_0" departPos="5.10" departSpeed="0.00" departDelay="0.88" arrival="278.00" arrivalLane="153964138#0_1" arrivalPos="337.99" arrivalSpeed="14.98" duration="131.00" routeLength="924.87" waitingTime="49.00" waitingCount="2" stopTime="0.00" timeLoss="65.51" rerouteNo="0" devices="tripinfo_69" vType="DEFAULT_VEHTYPE" speedFactor="0.96" vaporized=""/>
    <tripinfo id="72" depart="153.00" departLane="-661251539_0" departPos="5.10" departSpeed="0.00" departDelay="0.53" arrival="281.00" arrivalLane="153964138#0_0" arrivalPos="337.99" arrivalSpeed="13.49" duration="128.00" routeLength="1239.04" waitingTime="14.00" waitingCount="1" stopTime="0.00" timeLoss="31.34" rerouteNo="0" devices="tripinfo_72" vType="DEFAULT_VEHTYPE" speedFactor="0.89" vaporized=""/>
    <tripinfo id="52" depart="111.00" departLane="-231177697#2_0" departPos="5.10" departSpeed="0.00" departDelay="0.88" arrival="292.00" arrivalLane="226276377#0_0" arrivalPos="135.52" arrivalSpeed="12.36" duration="181.00" routeLength="1114.55" waitingTime="84.00" waitingCount="2" stopTime="0.00" timeLoss="101.43" rerouteNo="0" devices="tripinfo_52" vType="DEFAULT_VEHTYPE" speedFactor="0.94" vaporized=""/>
    <tripinfo id="78" depart="166.00" departLane="-661251539_0" departPos="5.10" departSpeed="0.00" departDelay="0.82" arrival="294.00" arrivalLane="226276377#0_0" arrivalPos="135.52" arrivalSpeed="13.44" duration="128.00" routeLength="783.10" waitingTime="60.00" waitingCount="1" stopTime="0.00" timeLoss="73.01" rerouteNo="0" devices="tripinfo_78" vType="DEFAULT_VEHTYPE" speedFactor="1.00" vaporized=""/>
    <tripinfo id="18" depart="39.00" departLane="978867529_0" departPos="5.10" departSpeed="0.00" departDelay="0.88" arrival="296.00" arrivalLane="226276377#0_0" arrivalPos="135.52" arrivalSpeed="15.86" duration="257.00" routeLength="1369.55" waitingTime="156.00" waitingCount="2" stopTime="0.00" timeLoss="181.73" rerouteNo="0" devices="tripinfo_18" vType="DEFAULT_VEHTYPE" speedFactor="1.20" vaporized=""/>
    <tripinfo id="29" depart="63.00" departLane="-226276377#1_0" departPos="5.10" departSpeed="0.00" departDelay="1.59" arrival="297.00" arrivalLane="210831347#0_1" arrivalPos="149.88" arrivalSpeed="10.86" duration="234.00" routeLength="888.52" waitingTime="146.00" waitingCount="2" stopTime="0.00" timeLoss="161.62" rerouteNo="0" devices="tripinfo_29" vType="DEFAULT_VEHTYPE" speedFactor="0.85" vaporized=""/>
    <tripinfo id="14" depart="30.00" departLane="978867529_0" departPos="5.10" departSpeed="0.00" departDelay="0.35" arrival="299.00" arrivalLane="226276377#0_0" arrivalPos="135.52" arrivalSpeed="13.16" duration="269.00" routeLength="1369.55" waitingTime="155.00" waitingCount="2" stopTime="0.00" timeLoss="181.97" rerouteNo="0" devices="tripinfo_14" vType="DEFAULT_VEHTYPE" speedFactor="1.03" vaporized=""/>
    <tripinfo id="53" depart="113.00" departLane="-226276377#1_0" departPos="5.10" departSpeed="0.00" departDelay="0.76" arrival="299.00" arrivalLane="210831347#0_1" arrivalPos="149.88" arrivalSpeed="13.08" duration="186.00" routeLength="888.52" waitingTime="98.00" waitingCount="2" stopTime="0.00" timeLoss="125.28" rerouteNo="0" devices="tripinfo_53" vType="DEFAULT_VEHTYPE" speedFactor="1.02" vaporized=""/>
    <tripinfo id="92" depart="195.00" departLane="-661251539_0" departPos="5.10" departSpeed="0.00" departDelay="0.18" arrival="300.00" arrivalLane="210831347#0_1" arrivalPos="149.88" arrivalSpeed="13.95" duration="105.00" routeLength="731.18" waitingTime="30.00" waitingCount="3" stopTime="0.00" timeLoss="53.22" rerouteNo="0" devices="tripinfo_92" vType="DEFAULT_VEHTYPE" speedFactor="1.04" vaporized=""/>
    <tripinfo id="91" depart="193.00" departLane="E8_0" departPos="5.10" departSpeed="0.00" departDelay="0.29" arrival="301.00" arrivalLane="-256961141#1_0" arrivalPos="204.72" arrivalSpeed="11.84" duration="108.00" routeLength="832.89" waitingTime="30.00" waitingCount="1" stopTime="0.00" timeLoss="42.05" rerouteNo="0" devices="tripinfo_91" vType="DEFAULT_VEHTYPE" speedFactor="0.93" vaporized=""/>
    <tripinfo id="19" depart="42.00" departLane="978867529_0" departPos="5.10" departSpeed="0.00" departDelay="1.76" arrival="302.00" arrivalLane="226276377#0_0" arrivalPos="135.52" arrivalSpeed="11.64" duration="260.00" routeLength="1369.55" waitingTime="140.00" waitingCount="2" stopTime="0.00" timeLoss="163.89" rerouteNo="0" devices="tripinfo_19" vType="DEFAULT_VEHTYPE" speedFactor="0.93" vaporized=""/>
    <tripinfo id="36" depart="77.00" departLane="978867529_0" departPos="5.10" departSpeed="0.00" departDelay="0.76" arrival="303.00" arrivalLane="210831345#1_1" arrivalPos="264.29" arrivalSpeed="12.77" duration="226.00" routeLength="951.92" waitingTime="140.00" waitingCount="2" stopTime="0.00" timeLoss="160.14" rerouteNo="0" devices="tripinfo_36" vType="DEFAULT_VEHTYPE" speedFactor="0.99" vaporized=""/>
    <tripinfo id="117" depart="248.00" departLane="-231177697#2_0" departPos="5.10" departSpeed="0.00" departDelay="0.24" arrival="303.00" arrivalLane="153964138#0_0" arrivalPos="337.99" arrivalSpeed="16.21" duration="55.00" routeLength="417.38" waitingTime="19.00" waitingCount="1" stopTime="0.00" timeLoss="27.73" rerouteNo="0" devices="tripinfo_117" vType="DEFAULT_VEHTYPE" speedFactor="1.00" vaporized=""/>
    <tripinfo id="114" depart="242.00" departLane="-226276377#1_0" departPos="5.10" departSpeed="0.00" departDelay="0.59" arrival="306.00" arrivalLane="450554042#0_0" arrivalPos="622.66" arrivalSpeed="13.05" duration="64.00" routeLength="763.53" waitingTime="0.00" waitingCount="0" stopTime="0.00" timeLoss="6.90" rerouteNo="0" devices="tripinfo_114" vType="DEFAULT_VEHTYPE" speedFactor="0.85" vaporized=""/>
    <tripinfo id="55" depart="117.00" departLane="978867529_0" departPos="5.10" departSpeed="0.00" departDelay="0.53" arrival="307.00" arrivalLane="210831345#1_0" arrivalPos="264.29" arrivalSpeed="11.94" duration="190.00" routeLength="951.92" waitingTime="100.00" waitingCount="2" stopTime="0.00" timeLoss="118.11" rerouteNo="0" devices="tripinfo_55" vType="DEFAULT_VEHTYPE" speedFactor="0.91" vaporized=""/>
    <tripinfo id="62" depart="132.00" departLane="-218680176#1_0" departPos="5.10" departSpeed="0.00" departDelay="0.71" arrival="309.00" arrivalLane="210831345#1_1" arrivalPos="264.29" arrivalSpeed="13.51" duration="177.00" routeLength="699.94" waitingTime="92.00" waitingCount="4" stopTime="0.00" timeLoss="124.69" rerouteNo="0" devices="tripinfo_62" vType="DEFAULT_VEHTYPE" speedFactor="1.00" vaporized=""/>
    <tripinfo id="86" depart="183.00" departLane="256961141#0_0" departPos="5.10" departSpeed="0.00" departDelay="0.88" arrival="309.00" arrivalLane="39907424_0" arrivalPos="316.44" arrivalSpeed="13.87" duration="126.00" routeLength="873.95" waitingTime="49.00" waitingCount="2" stopTime="0.00" timeLoss="66.89" rerouteNo="0" devices="tripinfo_86" vType="DEFAULT_VEHTYPE" speedFactor="1.02" vaporized=""/>
    <tripinfo id="93" depart="197.00" departLane="978867529_0" departPos="5.10" departSpeed="0.00" departDelay="0.06" arrival="310.00" arrivalLane="210831345#1_1" arrivalPos="264.29" arrivalSpeed="13.82" duration="113.00" routeLength="951.92" waitingTime="27.00" waitingCount="2" stopTime="0.00" timeLoss="48.47" rerouteNo="0" devices="tripinfo_93" vType="DEFAULT_VEHTYPE" speedFactor="1.01" vaporized=""/>
    <tripinfo id="45" depart="97.00" departLane="-218680176#1_0" departPos="5.10" departSpeed="0.00" departDelay="1.71" arrival="311.00" arrivalLane="226276377#0_0" arrivalPos="135.52" arrivalSpeed="11.98" duration="214.00" routeLength="1117.57" waitingTime="103.00" waitingCount="3" stopTime="0.00" timeLoss="126.63" rerouteNo="0" devices="tripinfo_45" vType="DEFAULT_VEHTYPE" speedFactor="0.86" vaporized=""/>
    <tripinfo id="132" depart="280.00" departLane="978867529_0" departPos="5.10" departSpeed="0.00" departDelay="0.47" arrival="315.00" arrivalLane="231177697#0_1" arrivalPos="74.44" arrivalSpeed="13.41" duration="35.00" routeLength="437.06" waitingTime="0.00" waitingCount="0" stopTime="0.00" timeLoss="5.61" rerouteNo="0" devices="tripinfo_132" vType="DEFAULT_VEHTYPE" speedFactor="0.97" vaporized=""/>
    <tripinfo id="60" depart="128.00" departLane="666135205#0_0" departPos="5.10" departSpeed="0.00" departDelay="0.94" arrival="316.00" arrivalLane="218680176#0_1" arrivalPos="98.94" arrivalSpeed="12.77" duration="188.00" routeLength="693.09" waitingTime="119.00" waitingCount="2" stopTime="0.00" timeLoss="132.90" rerouteNo="0" devices="tripinfo_60" vType="DEFAULT_VEHTYPE" speedFactor="0.93" vaporized=""/>
    <tripinfo id="76" depart="161.00" departLane="-661251539_0" departPos="5.10" departSpeed="0.00" departDelay="0.06" arrival="318.00" arrivalLane="218680176#0_1" arrivalPos="98.94" arrivalSpeed="14.95" duration="157.00" routeLength="1001.21" waitingTime="74.00" waitingCount="1" stopTime="0.00" timeLoss="92.27" rerouteNo="0" devices="tripinfo_76" vType="DEFAULT_VEHTYPE" speedFactor="1.14" vaporized=""/>