<?xml version="1.0" encoding="UTF-8"?>

<!-- generated on 2024-09-03 02:43:21 by Eclipse SUMO sumo Version 1.20.0
<configuration xmlns:xsi="http://www.w3.org/2001/XMLSchema-instance" xsi:noNamespaceSchemaLocation="http://sumo.dlr.de/xsd/sumoConfiguration.xsd">

    <input>
        <net-file value="c:\self\School\Master\Disertation\code\RESCO\resco_benchmark\environments/unirii/osm.net.xml.gz"/>
        <route-files value="c:\self\School\Master\Disertation\code\RESCO\resco_benchmark\environments/unirii/osm.passenger.trips.xml"/>
        <additional-files value="c:\self\School\Master\Disertation\code\RESCO\resco_benchmark\environments/unirii/osm.poly.xml.gz"/>
    </input>

    <output>
        <tripinfo-output value="C:\self\School\Master\Disertation\code\RESCO\results\IA2C-tr0-unirii-0-drq_norm-wait_norm\tripinfo_42.xml"/>
        <tripinfo-output.write-unfinished value="true"/>
    </output>

    <processing>
        <ignore-route-errors value="true"/>
        <time-to-teleport value="-1"/>
    </processing>

    <routing>
        <device.rerouting.adaptation-steps value="18"/>
        <device.rerouting.adaptation-interval value="10"/>
    </routing>

    <report>
        <verbose value="true"/>
        <no-warnings value="True"/>
        <duration-log.statistics value="true"/>
        <no-step-log value="True"/>
    </report>

    <traci_server>
        <remote-port value="52259"/>
    </traci_server>

    <random_number>
        <random value="true"/>
    </random_number>

    <gui_only>
        <gui-settings-file value="c:\self\School\Master\Disertation\code\RESCO\resco_benchmark\environments/unirii/osm.view.xml"/>
    </gui_only>

</configuration>
-->

<tripinfos xmlns:xsi="http://www.w3.org/2001/XMLSchema-instance" xsi:noNamespaceSchemaLocation="http://sumo.dlr.de/xsd/tripinfo_file.xsd">
    <tripinfo id="2" depart="5.00" departLane="666135205#0_0" departPos="5.10" departSpeed="0.00" departDelay="0.76" arrival="62.00" arrivalLane="231177697#0_0" arrivalPos="74.44" arrivalSpeed="13.66" duration="57.00" routeLength="649.17" waitingTime="0.00" waitingCount="0" stopTime="0.00" timeLoss="9.58" rerouteNo="0" devices="tripinfo_2" vType="DEFAULT_VEHTYPE" speedFactor="1.02" vaporized=""/>
    <tripinfo id="3" depart="7.00" departLane="E8_0" departPos="5.10" departSpeed="0.00" departDelay="0.65" arrival="78.00" arrivalLane="-256961141#1_0" arrivalPos="204.72" arrivalSpeed="13.19" duration="71.00" routeLength="832.89" waitingTime="0.00" waitingCount="0" stopTime="0.00" timeLoss="8.14" rerouteNo="0" devices="tripinfo_3" vType="DEFAULT_VEHTYPE" speedFactor="0.97" vaporized=""/>
    <tripinfo id="4" depart="9.00" departLane="-661251539_0" departPos="5.10" departSpeed="0.00" departDelay="0.53" arrival="99.00" arrivalLane="-256961141#1_1" arrivalPos="204.72" arrivalSpeed="11.87" duration="90.00" routeLength="872.91" waitingTime="12.00" waitingCount="1" stopTime="0.00" timeLoss="24.36" rerouteNo="0" devices="tripinfo_4" vType="DEFAULT_VEHTYPE" speedFactor="0.93" vaporized=""/>
    <tripinfo id="0" depart="0.00" departLane="65746828#0_0" departPos="5.10" departSpeed="0.00" departDelay="0.00" arrival="101.00" arrivalLane="-256961141#1_1" arrivalPos="204.72" arrivalSpeed="14.41" duration="101.00" routeLength="931.50" waitingTime="23.00" waitingCount="2" stopTime="0.00" timeLoss="41.19" rerouteNo="0" devices="tripinfo_0" vType="DEFAULT_VEHTYPE" speedFactor="1.04" vaporized=""/>
    <tripinfo id="11" depart="24.00" departLane="-661251539_0" departPos="5.10" departSpeed="0.00" departDelay="0.71" arrival="118.00" arrivalLane="153964138#0_0" arrivalPos="337.99" arrivalSpeed="15.65" duration="94.00" routeLength="1239.04" waitingTime="0.00" waitingCount="0" stopTime="0.00" timeLoss="7.23" rerouteNo="0" devices="tripinfo_11" vType="DEFAULT_VEHTYPE" speedFactor="0.99" vaporized=""/>
    <tripinfo id="40" depart="85.00" departLane="65746828#0_0" departPos="5.10" departSpeed="0.00" departDelay="0.29" arrival="125.00" arrivalLane="210831345#1_0" arrivalPos="264.29" arrivalSpeed="11.60" duration="40.00" routeLength="446.75" waitingTime="0.00" waitingCount="0" stopTime="0.00" timeLoss="4.41" rerouteNo="0" devices="tripinfo_40" vType="DEFAULT_VEHTYPE" speedFactor="0.92" vaporized=""/>
    <tripinfo id="50" depart="106.00" departLane="-218680176#1_0" departPos="5.10" departSpeed="0.00" departDelay="0.12" arrival="127.00" arrivalLane="231177697#0_0" arrivalPos="74.44" arrivalSpeed="12.68" duration="21.00" routeLength="205.97" waitingTime="0.00" waitingCount="0" stopTime="0.00" timeLoss="4.79" rerouteNo="0" devices="tripinfo_50" vType="DEFAULT_VEHTYPE" speedFactor="0.96" vaporized=""/>
    <tripinfo id="35" depart="75.00" departLane="-226276377#1_0" departPos="5.10" departSpeed="0.00" departDelay="0.88" arrival="140.00" arrivalLane="450554042#0_0" arrivalPos="622.66" arrivalSpeed="16.90" duration="65.00" routeLength="763.53" waitingTime="7.00" waitingCount="1" stopTime="0.00" timeLoss="17.13" rerouteNo="0" devices="tripinfo_35" vType="DEFAULT_VEHTYPE" speedFactor="1.02" vaporized=""/>
    <tripinfo id="16" depart="34.00" departLane="256961141#0_0" departPos="5.10" departSpeed="0.00" departDelay="0.12" arrival="152.00" arrivalLane="450554042#0_0" arrivalPos="622.66" arrivalSpeed="13.80" duration="118.00" routeLength="853.74" waitingTime="47.00" waitingCount="1" stopTime="0.00" timeLoss="57.09" rerouteNo="0" devices="tripinfo_16" vType="DEFAULT_VEHTYPE" speedFactor="0.90" vaporized=""/>
    <tripinfo id="31" depart="66.00" departLane="65746828#0_0" departPos="5.10" departSpeed="0.00" departDelay="0.35" arrival="163.00" arrivalLane="231177697#0_0" arrivalPos="74.44" arrivalSpeed="15.24" duration="97.00" routeLength="558.79" waitingTime="46.00" waitingCount="1" stopTime="0.00" timeLoss="59.50" rerouteNo="0" devices="tripinfo_31" vType="DEFAULT_VEHTYPE" speedFactor="1.11" vaporized=""/>
    <tripinfo id="61" depart="130.00" departLane="978867529_0" departPos="5.10" departSpeed="0.00" departDelay="0.82" arrival="164.00" arrivalLane="218680176#0_0" arrivalPos="98.94" arrivalSpeed="15.80" duration="34.00" routeLength="442.15" waitingTime="0.00" waitingCount="0" stopTime="0.00" timeLoss="7.82" rerouteNo="0" devices="tripinfo_61" vType="DEFAULT_VEHTYPE" speedFactor="1.14" vaporized=""/>
    <tripinfo id="27" depart="58.00" departLane="65746828#0_0" departPos="5.10" departSpeed="0.00" departDelay="0.82" arrival="168.00" arrivalLane="226276377#0_0" arrivalPos="135.52" arrivalSpeed="10.87" duration="110.00" routeLength="841.69" waitingTime="32.00" waitingCount="2" stopTime="0.00" timeLoss="44.08" rerouteNo="0" devices="tripinfo_27" vType="DEFAULT_VEHTYPE" speedFactor="0.84" vaporized=""/>
    <tripinfo id="47" depart="100.00" departLane="-218680176#1_0" departPos="5.10" departSpeed="0.00" departDelay="0.47" arrival="169.00" arrivalLane="210831347#0_0" arrivalPos="149.88" arrivalSpeed="14.08" duration="69.00" routeLength="560.58" waitingTime="11.00" waitingCount="1" stopTime="0.00" timeLoss="29.03" rerouteNo="0" devices="tripinfo_47" vType="DEFAULT_VEHTYPE" speedFactor="1.06" vaporized=""/>
    <tripinfo id="46" depart="98.00" departLane="978867529_0" departPos="5.10" departSpeed="0.00" departDelay="0.59" arrival="172.00" arrivalLane="210831347#0_0" arrivalPos="149.88" arrivalSpeed="14.12" duration="74.00" routeLength="812.56" waitingTime="2.00" waitingCount="1" stopTime="0.00" timeLoss="19.57" rerouteNo="0" devices="tripinfo_46" vType="DEFAULT_VEHTYPE" speedFactor="1.03" vaporized=""/>
    <tripinfo id="54" depart="115.00" departLane="256961141#0_0" departPos="5.10" departSpeed="0.00" departDelay="0.65" arrival="173.00" arrivalLane="450554042#0_0" arrivalPos="622.66" arrivalSpeed="16.51" duration="58.00" routeLength="853.74" waitingTime="0.00" waitingCount="0" stopTime="0.00" timeLoss="5.29" rerouteNo="0" devices="tripinfo_54" vType="DEFAULT_VEHTYPE" speedFactor="1.04" vaporized=""/>
    <tripinfo id="59" depart="125.00" departLane="65746828#0_0" departPos="5.10" departSpeed="0.00" departDelay="0.06" arrival="181.00" arrivalLane="153964138#0_1" arrivalPos="337.99" arrivalSpeed="18.59" duration="56.00" routeLength="834.49" waitingTime="0.00" waitingCount="0" stopTime="0.00" timeLoss="5.68" rerouteNo="0" devices="tripinfo_59" vType="DEFAULT_VEHTYPE" speedFactor="1.13" vaporized=""/>
    <tripinfo id="68" depart="144.00" departLane="-218680176#1_0" departPos="5.10" departSpeed="0.00" departDelay="0.00" arrival="192.00" arrivalLane="231177697#0_0" arrivalPos="74.44" arrivalSpeed="14.90" duration="48.00" routeLength="205.97" waitingTime="25.00" waitingCount="1" stopTime="0.00" timeLoss="34.16" rerouteNo="0" devices="tripinfo_68" vType="DEFAULT_VEHTYPE" speedFactor="1.14" vaporized=""/>
    <tripinfo id="41" depart="88.00" departLane="65746828#0_0" departPos="5.10" departSpeed="0.00" departDelay="1.18" arrival="194.00" arrivalLane="450554042#0_0" arrivalPos="622.66" arrivalSpeed="18.04" duration="106.00" routeLength="1340.72" waitingTime="18.00" waitingCount="1" stopTime="0.00" timeLoss="30.17" rerouteNo="0" devices="tripinfo_41" vType="DEFAULT_VEHTYPE" speedFactor="1.11" vaporized=""/>
    <tripinfo id="18" depart="39.00" departLane="978867529_0" departPos="5.10" departSpeed="0.00" departDelay="0.88" arrival="205.00" arrivalLane="226276377#0_0" arrivalPos="135.52" arrivalSpeed="13.54" duration="166.00" routeLength="1369.55" waitingTime="62.00" waitingCount="1" stopTime="0.00" timeLoss="76.27" rerouteNo="0" devices="tripinfo_18" vType="DEFAULT_VEHTYPE" speedFactor="1.01" vaporized=""/>
    <tripinfo id="14" depart="30.00" departLane="978867529_0" departPos="5.10" departSpeed="0.00" departDelay="0.35" arrival="207.00" arrivalLane="226276377#0_0" arrivalPos="135.52" arrivalSpeed="13.32" duration="177.00" routeLength="1369.55" waitingTime="71.00" waitingCount="1" stopTime="0.00" timeLoss="87.81" rerouteNo="0" devices="tripinfo_14" vType="DEFAULT_VEHTYPE" speedFactor="1.01" vaporized=""/>
    <tripinfo id="49" depart="105.00" departLane="E8_0" departPos="5.10" departSpeed="0.00" departDelay="1.24" arrival="207.00" arrivalLane="39907424_0" arrivalPos="316.44" arrivalSpeed="13.70" duration="102.00" routeLength="1303.68" waitingTime="0.00" waitingCount="0" stopTime="0.00" timeLoss="11.64" rerouteNo="0" devices="tripinfo_49" vType="DEFAULT_VEHTYPE" speedFactor="1.01" vaporized=""/>
    <tripinfo id="19" depart="42.00" departLane="978867529_0" departPos="5.10" departSpeed="0.00" departDelay="1.76" arrival="210.00" arrivalLane="226276377#0_0" arrivalPos="135.52" arrivalSpeed="13.88" duration="168.00" routeLength="1369.55" waitingTime="60.00" waitingCount="1" stopTime="0.00" timeLoss="79.02" rerouteNo="0" devices="tripinfo_19" vType="DEFAULT_VEHTYPE" speedFactor="1.01" vaporized=""/>
    <tripinfo id="28" depart="60.00" departLane="-226276377#1_0" departPos="5.10" departSpeed="0.00" departDelay="0.71" arrival="214.00" arrivalLane="231177697#0_0" arrivalPos="74.44" arrivalSpeed="12.55" duration="154.00" routeLength="1114.63" waitingTime="45.00" waitingCount="3" stopTime="0.00" timeLoss="68.37" rerouteNo="0" devices="tripinfo_28" vType="DEFAULT_VEHTYPE" speedFactor="0.90" vaporized=""/>
    <tripinfo id="45" depart="97.00" departLane="-218680176#1_0" departPos="5.10" departSpeed="0.00" departDelay="1.71" arrival="214.00" arrivalLane="226276377#0_0" arrivalPos="135.52" arrivalSpeed="12.15" duration="117.00" routeLength="1117.57" waitingTime="15.00" waitingCount="1" stopTime="0.00" timeLoss="35.17" rerouteNo="0" devices="tripinfo_45" vType="DEFAULT_VEHTYPE" speedFactor="0.93" vaporized=""/>
    <tripinfo id="30" depart="64.00" departLane="E8_0" departPos="5.10" departSpeed="0.00" departDelay="0.47" arrival="217.00" arrivalLane="226276377#0_1" arrivalPos="135.52" arrivalSpeed="14.89" duration="153.00" routeLength="784.51" waitingTime="90.00" waitingCount="1" stopTime="0.00" timeLoss="100.91" rerouteNo="0" devices="tripinfo_30" vType="DEFAULT_VEHTYPE" speedFactor="1.11" vaporized=""/>
    <tripinfo id="29" depart="63.00" departLane="-226276377#1_0" departPos="5.10" departSpeed="0.00" departDelay="1.59" arrival="219.00" arrivalLane="210831347#0_1" arrivalPos="149.88" arrivalSpeed="13.24" duration="156.00" routeLength="888.52" waitingTime="77.00" waitingCount="2" stopTime="0.00" timeLoss="96.42" rerouteNo="0" devices="tripinfo_29" vType="DEFAULT_VEHTYPE" speedFactor="1.02" vaporized=""/>
    <tripinfo id="13" depart="28.00" departLane="-218680176#1_0" departPos="5.10" departSpeed="0.00" departDelay="0.47" arrival="221.00" arrivalLane="-256961141#1_1" arrivalPos="204.72" arrivalSpeed="15.20" duration="193.00" routeLength="1207.38" waitingTime="104.00" waitingCount="2" stopTime="0.00" timeLoss="121.19" rerouteNo="0" devices="tripinfo_13" vType="DEFAULT_VEHTYPE" speedFactor="1.14" vaporized=""/>
    <tripinfo id="53" depart="113.00" departLane="-226276377#1_0" departPos="5.10" departSpeed="0.00" departDelay="0.76" arrival="222.00" arrivalLane="210831347#0_1" arrivalPos="149.88" arrivalSpeed="11.85" duration="109.00" routeLength="888.52" waitingTime="31.00" waitingCount="1" stopTime="0.00" timeLoss="43.74" rerouteNo="0" devices="tripinfo_53" vType="DEFAULT_VEHTYPE" speedFactor="0.93" vaporized=""/>
    <tripinfo id="12" depart="26.00" departLane="E8_0" departPos="5.10" departSpeed="0.00" departDelay="0.59" arrival="224.00" arrivalLane="210831347#0_1" arrivalPos="149.88" arrivalSpeed="12.16" duration="198.00" routeLength="1367.17" waitingTime="76.00" waitingCount="2" stopTime="0.00" timeLoss="95.77" rerouteNo="0" devices="tripinfo_12" vType="DEFAULT_VEHTYPE" speedFactor="0.93" vaporized=""/>
    <tripinfo id="20" depart="43.00" departLane="666135205#0_0" departPos="5.10" departSpeed="0.00" departDelay="0.65" arrival="225.00" arrivalLane="-256961141#1_1" arrivalPos="204.72" arrivalSpeed="13.67" duration="182.00" routeLength="1068.72" waitingTime="94.00" waitingCount="2" stopTime="0.00" timeLoss="109.97" rerouteNo="0" devices="tripinfo_20" vType="DEFAULT_VEHTYPE" speedFactor="1.00" vaporized=""/>
    <tripinfo id="25" depart="53.00" departLane="-661251539_0" departPos="5.10" departSpeed="0.00" departDelay="0.06" arrival="228.00" arrivalLane="153964138#0_0" arrivalPos="337.99" arrivalSpeed="15.86" duration="175.00" routeLength="1239.04" waitingTime="66.00" waitingCount="3" stopTime="0.00" timeLoss="89.11" rerouteNo="0" devices="tripinfo_25" vType="DEFAULT_VEHTYPE" speedFactor="0.99" vaporized=""/>
    <tripinfo id="42" depart="89.00" departLane="-661251539_0" departPos="5.10" departSpeed="0.00" departDelay="0.06" arrival="228.00" arrivalLane="153964138#0_1" arrivalPos="337.99" arrivalSpeed="16.03" duration="139.00" routeLength="1239.04" waitingTime="34.00" waitingCount="2" stopTime="0.00" timeLoss="53.88" rerouteNo="0" devices="tripinfo_42" vType="DEFAULT_VEHTYPE" speedFactor="1.00" vaporized=""/>
    <tripinfo id="9" depart="20.00" departLane="978867529_0" departPos="5.10" departSpeed="0.00" departDelay="0.94" arrival="229.00" arrivalLane="-256961141#1_1" arrivalPos="204.72" arrivalSpeed="11.10" duration="209.00" routeLength="1459.36" waitingTime="76.00" waitingCount="3" stopTime="0.00" timeLoss="100.93" rerouteNo="0" devices="tripinfo_9" vType="DEFAULT_VEHTYPE" speedFactor="0.89" vaporized=""/>
    <tripinfo id="64" depart="136.00" departLane="978867529_0" departPos="5.10" departSpeed="0.00" departDelay="0.47" arrival="230.00" arrivalLane="39907424_0" arrivalPos="316.44" arrivalSpeed="12.16" duration="94.00" routeLength="1216.15" waitingTime="0.00" waitingCount="0" stopTime="0.00" timeLoss="9.06" rerouteNo="0" devices="tripinfo_64" vType="DEFAULT_VEHTYPE" speedFactor="0.97" vaporized=""/>
    <tripinfo id="22" depart="47.00" departLane="-218680176#1_0" departPos="5.10" departSpeed="0.00" departDelay="0.41" arrival="231.00" arrivalLane="210831345#1_0" arrivalPos="264.29" arrivalSpeed="12.01" duration="184.00" routeLength="699.94" waitingTime="110.00" waitingCount="2" stopTime="0.00" timeLoss="124.88" rerouteNo="0" devices="tripinfo_22" vType="DEFAULT_VEHTYPE" speedFactor="0.87" vaporized=""/>
    <tripinfo id="23" depart="50.00" departLane="-218680176#1_0" departPos="5.10" departSpeed="0.00" departDelay="1.29" arrival="232.00" arrivalLane="210831345#1_1" arrivalPos="264.29" arrivalSpeed="12.68" duration="182.00" routeLength="699.94" waitingTime="108.00" waitingCount="2" stopTime="0.00" timeLoss="129.73" rerouteNo="0" devices="tripinfo_23" vType="DEFAULT_VEHTYPE" speedFactor="0.99" vaporized=""/>
    <tripinfo id="44" depart="94.00" departLane="-218680176#1_0" departPos="5.10" departSpeed="0.00" departDelay="0.82" arrival="232.00" arrivalLane="-256961141#1_1" arrivalPos="204.72" arrivalSpeed="11.69" duration="138.00" routeLength="1207.38" waitingTime="20.00" waitingCount="2" stopTime="0.00" timeLoss="42.48" rerouteNo="0" devices="tripinfo_44" vType="DEFAULT_VEHTYPE" speedFactor="0.86" vaporized=""/>
    <tripinfo id="36" depart="77.00" departLane="978867529_0" departPos="5.10" departSpeed="0.00" departDelay="0.76" arrival="234.00" arrivalLane="210831345#1_1" arrivalPos="264.29" arrivalSpeed="13.48" duration="157.00" routeLength="951.92" waitingTime="73.00" waitingCount="2" stopTime="0.00" timeLoss="91.12" rerouteNo="0" devices="tripinfo_36" vType="DEFAULT_VEHTYPE" speedFactor="1.00" vaporized=""/>
    <tripinfo id="55" depart="117.00" departLane="978867529_0" departPos="5.10" departSpeed="0.00" departDelay="0.53" arrival="235.00" arrivalLane="210831345#1_1" arrivalPos="264.29" arrivalSpeed="13.90" duration="118.00" routeLength="951.92" waitingTime="41.00" waitingCount="1" stopTime="0.00" timeLoss="54.66" rerouteNo="0" devices="tripinfo_55" vType="DEFAULT_VEHTYPE" speedFactor="1.03" vaporized=""/>
    <tripinfo id="57" depart="121.00" departLane="E8_0" departPos="5.10" departSpeed="0.00" departDelay="0.29" arrival="235.00" arrivalLane="39907424_0" arrivalPos="316.44" arrivalSpeed="11.72" duration="114.00" routeLength="1303.68" waitingTime="0.00" waitingCount="0" stopTime="0.00" timeLoss="13.59" rerouteNo="0" devices="tripinfo_57" vType="DEFAULT_VEHTYPE" speedFactor="0.90" vaporized=""/>
    <tripinfo id="62" depart="132.00" departLane="-218680176#1_0" departPos="5.10" departSpeed="0.00" departDelay="0.71" arrival="237.00" arrivalLane="210831345#1_1" arrivalPos="264.29" arrivalSpeed="13.62" duration="105.00" routeLength="699.94" waitingTime="37.00" waitingCount="2" stopTime="0.00" timeLoss="53.58" rerouteNo="0" devices="tripinfo_62" vType="DEFAULT_VEHTYPE" speedFactor="1.00" vaporized=""/>
    <tripinfo id="75" depart="159.00" departLane="E8_0" departPos="5.10" departSpeed="0.00" departDelay="0.18" arrival="237.00" arrivalLane="226276377#0_1" arrivalPos="135.52" arrivalSpeed="10.45" duration="78.00" routeLength="784.51" waitingTime="0.00" waitingCount="0" stopTime="0.00" timeLoss="5.62" rerouteNo="0" devices="tripinfo_75" vType="DEFAULT_VEHTYPE" speedFactor="0.79" vaporized=""/>
    <tripinfo id="10" depart="23.00" departLane="978867529_0" departPos="5.10" departSpeed="0.00" departDelay="1.82" arrival="239.00" arrivalLane="231177697#0_1" arrivalPos="74.44" arrivalSpeed="12.40" duration="216.00" routeLength="437.06" waitingTime="176.00" waitingCount="1" stopTime="0.00" timeLoss="185.89" rerouteNo="0" devices="tripinfo_10" vType="DEFAULT_VEHTYPE" speedFactor="0.96" vaporized=""/>
    <tripinfo id="17" depart="36.00" departLane="-661251539_0" departPos="5.10" departSpeed="0.00" departDelay="0.00" arrival="239.00" arrivalLane="218680176#0_1" arrivalPos="98.94" arrivalSpeed="17.08" duration="203.00" routeLength="1001.21" waitingTime="130.00" waitingCount="1" stopTime="0.00" timeLoss="143.52" rerouteNo="0" devices="tripinfo_17" vType="DEFAULT_VEHTYPE" speedFactor="1.25" vaporized=""/>
    <tripinfo id="15" depart="33.00" departLane="978867529_0" departPos="5.10" departSpeed="0.00" departDelay="1.24" arrival="241.00" arrivalLane="231177697#0_1" arrivalPos="74.44" arrivalSpeed="12.64" duration="208.00" routeLength="437.06" waitingTime="167.00" waitingCount="1" stopTime="0.00" timeLoss="176.23" rerouteNo="0" devices="tripinfo_15" vType="DEFAULT_VEHTYPE" speedFactor="0.91" vaporized=""/>
    <tripinfo id="78" depart="166.00" departLane="-661251539_0" departPos="5.10" departSpeed="0.00" departDelay="0.82" arrival="241.00" arrivalLane="226276377#0_0" arrivalPos="135.52" arrivalSpeed="13.85" duration="75.00" routeLength="783.10" waitingTime="9.00" waitingCount="1" stopTime="0.00" timeLoss="23.33" rerouteNo="0" devices="tripinfo_78" vType="DEFAULT_VEHTYPE" speedFactor="1.05" vaporized=""/>
    <tripinfo id="7" depart="15.00" departLane="65746828#0_0" departPos="5.10" departSpeed="0.00" departDelay="0.18" arrival="242.00" arrivalLane="218680176#0_1" arrivalPos="98.94" arrivalSpeed="13.06" duration="227.00" routeLength="602.71" waitingTime="166.00" waitingCount="2" stopTime="0.00" timeLoss="180.97" rerouteNo="0" devices="tripinfo_7" vType="DEFAULT_VEHTYPE" speedFactor="0.96" vaporized=""/>
    <tripinfo id="32" depart="68.00" departLane="978867529_0" departPos="5.10" departSpeed="0.00" departDelay="0.24" arrival="243.00" arrivalLane="231177697#0_1" arrivalPos="74.44" arrivalSpeed="14.44" duration="175.00" routeLength="437.06" waitingTime="135.00" waitingCount="1" stopTime="0.00" timeLoss="147.25" rerouteNo="0" devices="tripinfo_32" vType="DEFAULT_VEHTYPE" speedFactor="1.06" vaporized=""/>
    <tripinfo id="5" depart="11.00" departLane="-226276377#1_0" departPos="5.10" departSpeed="0.00" departDelay="0.41" arrival="244.00" arrivalLane="218680176#0_1" arrivalPos="98.94" arrivalSpeed="13.99" duration="233.00" routeLength="1158.55" waitingTime="133.00" waitingCount="3" stopTime="0.00" timeLoss="156.23" rerouteNo="0" devices="tripinfo_5" vType="DEFAULT_VEHTYPE" speedFactor="1.06" vaporized=""/>
    <tripinfo id="38" depart="81.00" departLane="E8_0" departPos="5.10" departSpeed="0.00" departDelay="0.53" arrival="246.00" arrivalLane="218680176#0_1" arrivalPos="98.94" arrivalSpeed="12.63" duration="165.00" routeLength="1637.20" waitingTime="29.00" waitingCount="2" stopTime="0.00" timeLoss="47.59" rerouteNo="0" devices="tripinfo_38" vType="DEFAULT_VEHTYPE" speedFactor="0.98" vaporized=""/>
    <tripinfo id="88" depart="187.00" departLane="-218680176#1_0" departPos="5.10" departSpeed="0.00" departDelay="0.65" arrival="246.00" arrivalLane="210831347#0_0" arrivalPos="149.88" arrivalSpeed="13.77" duration="59.00" routeLength="560.58" waitingTime="4.00" waitingCount="1" stopTime="0.00" timeLoss="16.27" rerouteNo="0" devices="tripinfo_88" vType="DEFAULT_VEHTYPE" speedFactor="1.00" vaporized=""/>
    <tripinfo id="51" depart="108.00" departLane="666135205#0_0" departPos="5.10" departSpeed="0.00" departDelay="0.00" arrival="256.00" arrivalLane="218680176#0_1" arrivalPos="98.94" arrivalSpeed="14.56" duration="148.00" routeLength="693.09" waitingTime="90.00" waitingCount="1" stopTime="0.00" timeLoss="101.22" rerouteNo="0" devices="tripinfo_51" vType="DEFAULT_VEHTYPE" speedFactor="1.10" vaporized=""/>
    <tripinfo id="91" depart="193.00" departLane="E8_0" departPos="5.10" departSpeed="0.00" departDelay="0.29" arrival="264.00" arrivalLane="-256961141#1_0" arrivalPos="204.72" arrivalSpeed="13.00" duration="71.00" routeLength="832.89" waitingTime="0.00" waitingCount="0" stopTime="0.00" timeLoss="7.42" rerouteNo="0" devices="tripinfo_91" vType="DEFAULT_VEHTYPE" speedFactor="0.97" vaporized=""/>
    <tripinfo id="95" depart="202.00" departLane="-661251539_0" departPos="5.10" departSpeed="0.00" departDelay="0.82" arrival="266.00" arrivalLane="210831345#1_0" arrivalPos="264.29" arrivalSpeed="14.88" duration="64.00" routeLength="826.64" waitingTime="0.00" waitingCount="0" stopTime="0.00" timeLoss="9.33" rerouteNo="0" devices="tripinfo_95" vType="DEFAULT_VEHTYPE" speedFactor="1.11" vaporized=""/>
    <tripinfo id="85" depart="180.00" departLane="E8_0" departPos="5.10" departSpeed="0.00" departDelay="0.00" arrival="268.00" arrivalLane="226276377#0_1" arrivalPos="135.52" arrivalSpeed="12.43" duration="88.00" routeLength="784.51" waitingTime="18.00" waitingCount="1" stopTime="0.00" timeLoss="28.48" rerouteNo="0" devices="tripinfo_85" vType="DEFAULT_VEHTYPE" speedFactor="0.96" vaporized=""/>
    <tripinfo id="72" depart="153.00" departLane="-661251539_0" departPos="5.10" departSpeed="0.00" departDelay="0.53" arrival="275.00" arrivalLane="153964138#0_0" arrivalPos="337.99" arrivalSpeed="16.73" duration="122.00" routeLength="1239.04" waitingTime="23.00" waitingCount="2" stopTime="0.00" timeLoss="41.11" rerouteNo="0" devices="tripinfo_72" vType="DEFAULT_VEHTYPE" speedFactor="1.06" vaporized=""/>
    <tripinfo id="66" depart="140.00" departLane="978867529_0" departPos="5.10" departSpeed="0.00" departDelay="0.24" arrival="286.00" arrivalLane="450554042#0_0" arrivalPos="622.66" arrivalSpeed="13.34" duration="146.00" routeLength="1868.58" waitingTime="0.00" waitingCount="0" stopTime="0.00" timeLoss="10.08" rerouteNo="0" devices="tripinfo_66" vType="DEFAULT_VEHTYPE" speedFactor="0.86" vaporized=""/>
    <tripinfo id="103" depart="219.00" departLane="-661251539_0" departPos="5.10" departSpeed="0.00" departDelay="0.88" arrival="286.00" arrivalLane="-256961141#1_1" arrivalPos="204.72" arrivalSpeed="13.40" duration="67.00" routeLength="872.91" waitingTime="0.00" waitingCount="0" stopTime="0.00" timeLoss="8.29" rerouteNo="0" devices="tripinfo_103" vType="DEFAULT_VEHTYPE" speedFactor="1.03" vaporized=""/>
    <tripinfo id="92" depart="195.00" departLane="-661251539_0" departPos="5.10" departSpeed="0.00" departDelay="0.18" arrival="296.00" arrivalLane="210831347#0_1" arrivalPos="149.88" arrivalSpeed="11.12" duration="101.00" routeLength="731.18" waitingTime="28.00" waitingCount="1" stopTime="0.00" timeLoss="39.44" rerouteNo="0" devices="tripinfo_92" vType="DEFAULT_VEHTYPE" speedFactor="0.88" vaporized=""/>
    <tripinfo id="93" depart="197.00" departLane="978867529_0" departPos="5.10" departSpeed="0.00" departDelay="0.06" arrival="302.00" arrivalLane="210831345#1_1" arrivalPos="264.29" arrivalSpeed="13.68" duration="105.00" routeLength="951.92" waitingTime="31.00" waitingCount="1" stopTime="0.00" timeLoss="41.98" rerouteNo="0" devices="tripinfo_93" vType="DEFAULT_VEHTYPE" speedFactor="1.04" vaporized=""/>
    <tripinfo id="48" depart="102.00" departLane="E8_0" departPos="5.10" departSpeed="0.00" departDelay="0.35" arrival="315.00" arrivalLane="218680176#0_1" arrivalPos="98.94" arrivalSpeed="12.86" duration="213.00" routeLength="1637.20" waitingTime="66.00" waitingCount="2" stopTime="0.00" timeLoss="96.07" rerouteNo="0" devices="tripinfo_48" vType="DEFAULT_VEHTYPE" speedFactor="0.98" vaporized=""/>
    <tripinfo id="132" depart="280.00" departLane="978867529_0" departPos="5.10" departSpeed="0.00" departDelay="0.47" arrival="315.00" arrivalLane="231177697#0_1" arrivalPos="74.44" arrivalSpeed="12.88" duration="35.00" routeLength="437.06" waitingTime="0.00" waitingCount="0" stopTime="0.00" timeLoss="5.52" rerouteNo="0" devices="tripinfo_132" vType="DEFAULT_VEHTYPE" speedFactor="0.97" vaporized=""/>
    <tripinfo id="114" depart="242.00" departLane="-226276377#1_0" departPos="5.10" departSpeed="0.00" departDelay="0.59" arrival="316.00" arrivalLane="450554042#0_0" arrivalPos="622.66" arrivalSpeed="15.98" duration="74.00" routeLength="763.53" waitingTime="16.00" waitingCount="1" stopTime="0.00" timeLoss="25.19" rerouteNo="0" devices="tripinfo_114" vType="DEFAULT_VEHTYPE" speedFactor="1.00" vaporized=""/>
    <tripinfo id="121" depart="257.00" departLane="256961141#0_0" departPos="5.10" departSpeed="0.00" departDelay="0.76" arrival="318.00" arrivalLane="450554042#0_1" arrivalPos="622.66" arrivalSpeed="17.25" duration="61.00" routeLength="853.74" waitingTime="0.00" waitingCount="0" stopTime="0.00" timeLoss="11.22" rerouteNo="0" devices="tripinfo_121" vType="DEFAULT_VEHTYPE" speedFactor="1.11" vaporized=""/>
    <tripinfo id="43" depart="92.00" departLane="E8_0" departPos="5.10" departSpeed="0.00" departDelay="0.94" arrival="319.00" arrivalLane="218680176#0_1" arrivalPos="98.94" arrivalSpeed="11.25" duration="227.00" routeLength="1637.20" waitingTime="67.00" waitingCount="3" stopTime="0.00" timeLoss="89.75" rerouteNo="0" devices="tripinfo_43" vType="DEFAULT_VEHTYPE" speedFactor="0.84" vaporized=""/>
    <tripinfo id="76" depart="161.00" departLane="-661251539_0" departPos="5.10" departSpeed="0.00" departDelay="0.06" arrival="320.00" arrivalLane="218680176#0_1" arrivalPos="98.94" arrivalSpeed="12.77" duration="159.00" routeLength="1001.21" waitingTime="58.00" waitingCount="2" stopTime="0.00" timeLoss="82.74" rerouteNo="0" devices="tripinfo_76" vType="DEFAULT_VEHTYPE" speedFactor="0.96" vaporized=""/>
    <tripinfo id="80" depart="170.00" departLane="-218680176#1_0" departPos="5.10" departSpeed="0.00" departDelay="0.59" arrival="322.00" arrivalLane="226276377#0_0" arrivalPos="135.52" arrivalSpeed="10.53" duration="152.00" routeLength="1117.57" waitingTime="33.00" waitingCount="2" stopTime="0.00" timeLoss="57.55" rerouteNo="0" devices="tripinfo_80" vType="DEFAULT_VEHTYPE" speedFactor="0.81" vaporized=""/>
    <tripinfo id="89" depart="189.00" departLane="-661251539_0" departPos="5.10" departSpeed="0.00" departDelay="0.53" arrival="322.00" arrivalLane="218680176#0_1" arrivalPos="98.94" arrivalSpeed="12.83" duration="133.00" routeLength="1001.21" waitingTime="39.00" waitingCount="1" stopTime="0.00" timeLoss="59.64" rerouteNo="0" devices="tripinfo_89" vType="DEFAULT_VEHTYPE" speedFactor="1.00" vaporized=""/>
    <tripinfo id="120" depart="255.00" departLane="-661251539_0" departPos="5.10" departSpeed="0.00" departDelay="0.88" arrival="323.00" arrivalLane="226276377#0_0" arrivalPos="135.52" arrivalSpeed="12.48" duration="68.00" routeLength="783.10" waitingTime="0.00" waitingCount="0" stopTime="0.00" timeLoss="10.92" rerouteNo="0" devices="tripinfo_120" vType="DEFAULT_VEHTYPE" speedFactor="0.94" vaporized=""/>