<?xml version="1.0" encoding="UTF-8"?>

<!-- generated on 2024-09-03 02:40:51 by Eclipse SUMO sumo Version 1.20.0
<configuration xmlns:xsi="http://www.w3.org/2001/XMLSchema-instance" xsi:noNamespaceSchemaLocation="http://sumo.dlr.de/xsd/sumoConfiguration.xsd">

    <input>
        <net-file value="c:\self\School\Master\Disertation\code\RESCO\resco_benchmark\environments/unirii/osm.net.xml.gz"/>
        <route-files value="c:\self\School\Master\Disertation\code\RESCO\resco_benchmark\environments/unirii/osm.passenger.trips.xml"/>
        <additional-files value="c:\self\School\Master\Disertation\code\RESCO\resco_benchmark\environments/unirii/osm.poly.xml.gz"/>
    </input>

    <output>
        <tripinfo-output value="C:\self\School\Master\Disertation\code\RESCO\results\IA2C-tr0-unirii-0-drq_norm-wait_norm\tripinfo_32.xml"/>
        <tripinfo-output.write-unfinished value="true"/>
    </output>

    <processing>
        <ignore-route-errors value="true"/>
        <time-to-teleport value="-1"/>
    </processing>

    <routing>
        <device.rerouting.adaptation-steps value="18"/>
        <device.rerouting.adaptation-interval value="10"/>
    </routing>

    <report>
        <verbose value="true"/>
        <no-warnings value="True"/>
        <duration-log.statistics value="true"/>
        <no-step-log value="True"/>
    </report>

    <traci_server>
        <remote-port value="52159"/>
    </traci_server>

    <random_number>
        <random value="true"/>
    </random_number>

    <gui_only>
        <gui-settings-file value="c:\self\School\Master\Disertation\code\RESCO\resco_benchmark\environments/unirii/osm.view.xml"/>
    </gui_only>

</configuration>
-->

<tripinfos xmlns:xsi="http://www.w3.org/2001/XMLSchema-instance" xsi:noNamespaceSchemaLocation="http://sumo.dlr.de/xsd/tripinfo_file.xsd">
    <tripinfo id="10" depart="23.00" departLane="978867529_0" departPos="5.10" departSpeed="0.00" departDelay="1.82" arrival="89.00" arrivalLane="231177697#0_1" arrivalPos="74.44" arrivalSpeed="12.89" duration="66.00" routeLength="437.06" waitingTime="26.00" waitingCount="1" stopTime="0.00" timeLoss="36.43" rerouteNo="0" devices="tripinfo_10" vType="DEFAULT_VEHTYPE" speedFactor="0.98" vaporized=""/>
    <tripinfo id="15" depart="33.00" departLane="978867529_0" departPos="5.10" departSpeed="0.00" departDelay="1.24" arrival="94.00" arrivalLane="231177697#0_1" arrivalPos="74.44" arrivalSpeed="9.46" duration="61.00" routeLength="437.06" waitingTime="11.00" waitingCount="1" stopTime="0.00" timeLoss="21.05" rerouteNo="0" devices="tripinfo_15" vType="DEFAULT_VEHTYPE" speedFactor="0.72" vaporized=""/>
    <tripinfo id="32" depart="68.00" departLane="978867529_0" departPos="5.10" departSpeed="0.00" departDelay="0.24" arrival="102.00" arrivalLane="231177697#0_1" arrivalPos="74.44" arrivalSpeed="13.72" duration="34.00" routeLength="437.06" waitingTime="0.00" waitingCount="0" stopTime="0.00" timeLoss="5.69" rerouteNo="0" devices="tripinfo_32" vType="DEFAULT_VEHTYPE" speedFactor="1.02" vaporized=""/>
    <tripinfo id="35" depart="75.00" departLane="-226276377#1_0" departPos="5.10" departSpeed="0.00" departDelay="0.88" arrival="124.00" arrivalLane="450554042#0_0" arrivalPos="622.66" arrivalSpeed="18.24" duration="49.00" routeLength="763.53" waitingTime="0.00" waitingCount="0" stopTime="0.00" timeLoss="7.16" rerouteNo="0" devices="tripinfo_35" vType="DEFAULT_VEHTYPE" speedFactor="1.17" vaporized=""/>
    <tripinfo id="1" depart="3.00" departLane="-231177697#2_0" departPos="5.10" departSpeed="0.00" departDelay="0.88" arrival="127.00" arrivalLane="210831345#1_1" arrivalPos="264.29" arrivalSpeed="14.14" duration="124.00" routeLength="696.92" waitingTime="66.00" waitingCount="1" stopTime="0.00" timeLoss="77.17" rerouteNo="0" devices="tripinfo_1" vType="DEFAULT_VEHTYPE" speedFactor="1.11" vaporized=""/>
    <tripinfo id="6" depart="13.00" departLane="-218680176#1_0" departPos="5.10" departSpeed="0.00" departDelay="0.29" arrival="130.00" arrivalLane="153964138#0_2" arrivalPos="337.99" arrivalSpeed="15.66" duration="117.00" routeLength="462.27" waitingTime="78.00" waitingCount="1" stopTime="0.00" timeLoss="85.69" rerouteNo="0" devices="tripinfo_6" vType="DEFAULT_VEHTYPE" speedFactor="0.96" vaporized=""/>
    <tripinfo id="2" depart="5.00" departLane="666135205#0_0" departPos="5.10" departSpeed="0.00" departDelay="0.76" arrival="138.00" arrivalLane="231177697#0_0" arrivalPos="74.44" arrivalSpeed="11.75" duration="133.00" routeLength="649.17" waitingTime="65.00" waitingCount="2" stopTime="0.00" timeLoss="81.02" rerouteNo="0" devices="tripinfo_2" vType="DEFAULT_VEHTYPE" speedFactor="0.93" vaporized=""/>
    <tripinfo id="31" depart="66.00" departLane="65746828#0_0" departPos="5.10" departSpeed="0.00" departDelay="0.35" arrival="139.00" arrivalLane="231177697#0_0" arrivalPos="74.44" arrivalSpeed="13.96" duration="73.00" routeLength="558.79" waitingTime="22.00" waitingCount="1" stopTime="0.00" timeLoss="35.11" rerouteNo="0" devices="tripinfo_31" vType="DEFAULT_VEHTYPE" speedFactor="1.09" vaporized=""/>
    <tripinfo id="27" depart="58.00" departLane="65746828#0_0" departPos="5.10" departSpeed="0.00" departDelay="0.82" arrival="142.00" arrivalLane="226276377#0_0" arrivalPos="135.52" arrivalSpeed="11.84" duration="84.00" routeLength="841.69" waitingTime="12.00" waitingCount="1" stopTime="0.00" timeLoss="24.70" rerouteNo="0" devices="tripinfo_27" vType="DEFAULT_VEHTYPE" speedFactor="0.94" vaporized=""/>
    <tripinfo id="40" depart="85.00" departLane="65746828#0_0" departPos="5.10" departSpeed="0.00" departDelay="0.29" arrival="145.00" arrivalLane="210831345#1_0" arrivalPos="264.29" arrivalSpeed="16.61" duration="60.00" routeLength="446.75" waitingTime="22.00" waitingCount="1" stopTime="0.00" timeLoss="33.28" rerouteNo="0" devices="tripinfo_40" vType="DEFAULT_VEHTYPE" speedFactor="1.22" vaporized=""/>
    <tripinfo id="3" depart="7.00" departLane="E8_0" departPos="5.10" departSpeed="0.00" departDelay="0.65" arrival="148.00" arrivalLane="-256961141#1_0" arrivalPos="204.72" arrivalSpeed="12.44" duration="141.00" routeLength="832.89" waitingTime="63.00" waitingCount="1" stopTime="0.00" timeLoss="73.38" rerouteNo="0" devices="tripinfo_3" vType="DEFAULT_VEHTYPE" speedFactor="0.90" vaporized=""/>
    <tripinfo id="61" depart="130.00" departLane="978867529_0" departPos="5.10" departSpeed="0.00" departDelay="0.82" arrival="163.00" arrivalLane="218680176#0_0" arrivalPos="98.94" arrivalSpeed="16.30" duration="33.00" routeLength="442.15" waitingTime="0.00" waitingCount="0" stopTime="0.00" timeLoss="8.45" rerouteNo="0" devices="tripinfo_61" vType="DEFAULT_VEHTYPE" speedFactor="1.22" vaporized=""/>
    <tripinfo id="11" depart="24.00" departLane="-661251539_0" departPos="5.10" departSpeed="0.00" departDelay="0.71" arrival="177.00" arrivalLane="153964138#0_0" arrivalPos="337.99" arrivalSpeed="17.10" duration="153.00" routeLength="1239.04" waitingTime="55.00" waitingCount="1" stopTime="0.00" timeLoss="72.17" rerouteNo="0" devices="tripinfo_11" vType="DEFAULT_VEHTYPE" speedFactor="1.06" vaporized=""/>
    <tripinfo id="25" depart="53.00" departLane="-661251539_0" departPos="5.10" departSpeed="0.00" departDelay="0.06" arrival="177.00" arrivalLane="153964138#0_1" arrivalPos="337.99" arrivalSpeed="17.42" duration="124.00" routeLength="1239.04" waitingTime="30.00" waitingCount="1" stopTime="0.00" timeLoss="47.32" rerouteNo="0" devices="tripinfo_25" vType="DEFAULT_VEHTYPE" speedFactor="1.12" vaporized=""/>
    <tripinfo id="14" depart="30.00" departLane="978867529_0" departPos="5.10" departSpeed="0.00" departDelay="0.35" arrival="180.00" arrivalLane="226276377#0_0" arrivalPos="135.52" arrivalSpeed="13.54" duration="150.00" routeLength="1369.55" waitingTime="44.00" waitingCount="1" stopTime="0.00" timeLoss="60.92" rerouteNo="0" devices="tripinfo_14" vType="DEFAULT_VEHTYPE" speedFactor="1.00" vaporized=""/>
    <tripinfo id="18" depart="39.00" departLane="978867529_0" departPos="5.10" departSpeed="0.00" departDelay="0.88" arrival="183.00" arrivalLane="226276377#0_0" arrivalPos="135.52" arrivalSpeed="12.81" duration="144.00" routeLength="1369.55" waitingTime="36.00" waitingCount="1" stopTime="0.00" timeLoss="54.32" rerouteNo="0" devices="tripinfo_18" vType="DEFAULT_VEHTYPE" speedFactor="1.01" vaporized=""/>
    <tripinfo id="19" depart="42.00" departLane="978867529_0" departPos="5.10" departSpeed="0.00" departDelay="1.76" arrival="186.00" arrivalLane="226276377#0_0" arrivalPos="135.52" arrivalSpeed="14.50" duration="144.00" routeLength="1369.55" waitingTime="37.00" waitingCount="1" stopTime="0.00" timeLoss="60.02" rerouteNo="0" devices="tripinfo_19" vType="DEFAULT_VEHTYPE" speedFactor="1.08" vaporized=""/>
    <tripinfo id="42" depart="89.00" departLane="-661251539_0" departPos="5.10" departSpeed="0.00" departDelay="0.06" arrival="187.00" arrivalLane="153964138#0_0" arrivalPos="337.99" arrivalSpeed="16.03" duration="98.00" routeLength="1239.04" waitingTime="0.00" waitingCount="0" stopTime="0.00" timeLoss="9.77" rerouteNo="0" devices="tripinfo_42" vType="DEFAULT_VEHTYPE" speedFactor="0.97" vaporized=""/>
    <tripinfo id="7" depart="15.00" departLane="65746828#0_0" departPos="5.10" departSpeed="0.00" departDelay="0.18" arrival="192.00" arrivalLane="218680176#0_1" arrivalPos="98.94" arrivalSpeed="11.44" duration="177.00" routeLength="602.71" waitingTime="111.00" waitingCount="2" stopTime="0.00" timeLoss="124.66" rerouteNo="0" devices="tripinfo_7" vType="DEFAULT_VEHTYPE" speedFactor="0.86" vaporized=""/>
    <tripinfo id="17" depart="36.00" departLane="-661251539_0" departPos="5.10" departSpeed="0.00" departDelay="0.00" arrival="193.00" arrivalLane="218680176#0_1" arrivalPos="98.94" arrivalSpeed="13.51" duration="157.00" routeLength="1001.21" waitingTime="69.00" waitingCount="2" stopTime="0.00" timeLoss="96.53" rerouteNo="0" devices="tripinfo_17" vType="DEFAULT_VEHTYPE" speedFactor="1.21" vaporized=""/>
    <tripinfo id="12" depart="26.00" departLane="E8_0" departPos="5.10" departSpeed="0.00" departDelay="0.59" arrival="194.00" arrivalLane="210831347#0_1" arrivalPos="149.88" arrivalSpeed="13.29" duration="168.00" routeLength="1367.17" waitingTime="58.00" waitingCount="2" stopTime="0.00" timeLoss="76.40" rerouteNo="0" devices="tripinfo_12" vType="DEFAULT_VEHTYPE" speedFactor="1.04" vaporized=""/>
    <tripinfo id="52" depart="111.00" departLane="-231177697#2_0" departPos="5.10" departSpeed="0.00" departDelay="0.88" arrival="202.00" arrivalLane="226276377#0_0" arrivalPos="135.52" arrivalSpeed="12.05" duration="91.00" routeLength="1114.55" waitingTime="0.00" waitingCount="0" stopTime="0.00" timeLoss="9.65" rerouteNo="0" devices="tripinfo_52" vType="DEFAULT_VEHTYPE" speedFactor="0.92" vaporized=""/>
    <tripinfo id="49" depart="105.00" departLane="E8_0" departPos="5.10" departSpeed="0.00" departDelay="1.24" arrival="204.00" arrivalLane="39907424_0" arrivalPos="316.44" arrivalSpeed="13.86" duration="99.00" routeLength="1303.68" waitingTime="0.00" waitingCount="0" stopTime="0.00" timeLoss="11.68" rerouteNo="0" devices="tripinfo_49" vType="DEFAULT_VEHTYPE" speedFactor="1.05" vaporized=""/>
    <tripinfo id="22" depart="47.00" departLane="-218680176#1_0" departPos="5.10" departSpeed="0.00" departDelay="0.41" arrival="205.00" arrivalLane="210831345#1_0" arrivalPos="264.29" arrivalSpeed="11.77" duration="158.00" routeLength="699.94" waitingTime="86.00" waitingCount="2" stopTime="0.00" timeLoss="100.70" rerouteNo="0" devices="tripinfo_22" vType="DEFAULT_VEHTYPE" speedFactor="0.90" vaporized=""/>
    <tripinfo id="21" depart="45.00" departLane="-231177697#2_0" departPos="5.10" departSpeed="0.00" departDelay="0.53" arrival="208.00" arrivalLane="210831345#1_0" arrivalPos="264.29" arrivalSpeed="12.41" duration="163.00" routeLength="696.92" waitingTime="89.00" waitingCount="2" stopTime="0.00" timeLoss="106.24" rerouteNo="0" devices="tripinfo_21" vType="DEFAULT_VEHTYPE" speedFactor="0.90" vaporized=""/>
    <tripinfo id="34" depart="72.00" departLane="-231177697#2_0" departPos="5.10" departSpeed="0.00" departDelay="0.00" arrival="210.00" arrivalLane="210831345#1_1" arrivalPos="264.29" arrivalSpeed="11.58" duration="138.00" routeLength="696.92" waitingTime="61.00" waitingCount="2" stopTime="0.00" timeLoss="81.79" rerouteNo="0" devices="tripinfo_34" vType="DEFAULT_VEHTYPE" speedFactor="0.92" vaporized=""/>
    <tripinfo id="39" depart="83.00" departLane="-231177697#2_0" departPos="5.10" departSpeed="0.00" departDelay="0.41" arrival="211.00" arrivalLane="210831345#1_0" arrivalPos="264.29" arrivalSpeed="14.49" duration="128.00" routeLength="696.92" waitingTime="51.00" waitingCount="2" stopTime="0.00" timeLoss="79.61" rerouteNo="0" devices="tripinfo_39" vType="DEFAULT_VEHTYPE" speedFactor="1.07" vaporized=""/>
    <tripinfo id="36" depart="77.00" departLane="978867529_0" departPos="5.10" departSpeed="0.00" departDelay="0.76" arrival="213.00" arrivalLane="210831345#1_1" arrivalPos="264.29" arrivalSpeed="13.14" duration="136.00" routeLength="951.92" waitingTime="46.00" waitingCount="2" stopTime="0.00" timeLoss="68.46" rerouteNo="0" devices="tripinfo_36" vType="DEFAULT_VEHTYPE" speedFactor="0.98" vaporized=""/>
    <tripinfo id="26" depart="56.00" departLane="-231177697#2_0" departPos="5.10" departSpeed="0.00" departDelay="0.94" arrival="215.00" arrivalLane="450554042#0_0" arrivalPos="622.66" arrivalSpeed="15.92" duration="159.00" routeLength="1613.58" waitingTime="38.00" waitingCount="1" stopTime="0.00" timeLoss="56.39" rerouteNo="0" devices="tripinfo_26" vType="DEFAULT_VEHTYPE" speedFactor="1.01" vaporized=""/>
    <tripinfo id="55" depart="117.00" departLane="978867529_0" departPos="5.10" departSpeed="0.00" departDelay="0.53" arrival="215.00" arrivalLane="210831345#1_1" arrivalPos="264.29" arrivalSpeed="11.94" duration="98.00" routeLength="951.92" waitingTime="13.00" waitingCount="1" stopTime="0.00" timeLoss="27.49" rerouteNo="0" devices="tripinfo_55" vType="DEFAULT_VEHTYPE" speedFactor="0.93" vaporized=""/>
    <tripinfo id="57" depart="121.00" departLane="E8_0" departPos="5.10" departSpeed="0.00" departDelay="0.29" arrival="219.00" arrivalLane="39907424_0" arrivalPos="316.44" arrivalSpeed="13.59" duration="98.00" routeLength="1303.68" waitingTime="0.00" waitingCount="0" stopTime="0.00" timeLoss="11.53" rerouteNo="0" devices="tripinfo_57" vType="DEFAULT_VEHTYPE" speedFactor="1.05" vaporized=""/>
    <tripinfo id="79" depart="168.00" departLane="-231177697#2_0" departPos="5.10" departSpeed="0.00" departDelay="0.71" arrival="222.00" arrivalLane="153964138#0_0" arrivalPos="337.99" arrivalSpeed="17.04" duration="54.00" routeLength="417.38" waitingTime="19.00" waitingCount="1" stopTime="0.00" timeLoss="28.94" rerouteNo="0" devices="tripinfo_79" vType="DEFAULT_VEHTYPE" speedFactor="1.07" vaporized=""/>
    <tripinfo id="23" depart="50.00" departLane="-218680176#1_0" departPos="5.10" departSpeed="0.00" departDelay="1.29" arrival="241.00" arrivalLane="210831345#1_1" arrivalPos="264.29" arrivalSpeed="15.38" duration="191.00" routeLength="699.94" waitingTime="130.00" waitingCount="2" stopTime="0.00" timeLoss="146.17" rerouteNo="0" devices="tripinfo_23" vType="DEFAULT_VEHTYPE" speedFactor="1.16" vaporized=""/>
    <tripinfo id="46" depart="98.00" departLane="978867529_0" departPos="5.10" departSpeed="0.00" departDelay="0.59" arrival="243.00" arrivalLane="210831347#0_0" arrivalPos="149.88" arrivalSpeed="13.00" duration="145.00" routeLength="812.56" waitingTime="69.00" waitingCount="2" stopTime="0.00" timeLoss="86.96" rerouteNo="0" devices="tripinfo_46" vType="DEFAULT_VEHTYPE" speedFactor="0.96" vaporized=""/>
    <tripinfo id="16" depart="34.00" departLane="256961141#0_0" departPos="5.10" departSpeed="0.00" departDelay="0.12" arrival="247.00" arrivalLane="450554042#0_0" arrivalPos="622.66" arrivalSpeed="15.88" duration="213.00" routeLength="853.74" waitingTime="148.00" waitingCount="1" stopTime="0.00" timeLoss="158.17" rerouteNo="0" devices="tripinfo_16" vType="DEFAULT_VEHTYPE" speedFactor="0.99" vaporized=""/>
    <tripinfo id="54" depart="115.00" departLane="256961141#0_0" departPos="5.10" departSpeed="0.00" departDelay="0.65" arrival="249.00" arrivalLane="450554042#0_1" arrivalPos="622.66" arrivalSpeed="15.72" duration="134.00" routeLength="853.74" waitingTime="68.00" waitingCount="1" stopTime="0.00" timeLoss="79.44" rerouteNo="0" devices="tripinfo_54" vType="DEFAULT_VEHTYPE" speedFactor="1.00" vaporized=""/>
    <tripinfo id="59" depart="125.00" departLane="65746828#0_0" departPos="5.10" departSpeed="0.00" departDelay="0.06" arrival="253.00" arrivalLane="153964138#0_0" arrivalPos="337.99" arrivalSpeed="16.41" duration="128.00" routeLength="834.49" waitingTime="56.00" waitingCount="2" stopTime="0.00" timeLoss="72.89" rerouteNo="0" devices="tripinfo_59" vType="DEFAULT_VEHTYPE" speedFactor="1.04" vaporized=""/>
    <tripinfo id="51" depart="108.00" departLane="666135205#0_0" departPos="5.10" departSpeed="0.00" departDelay="0.00" arrival="264.00" arrivalLane="218680176#0_1" arrivalPos="98.94" arrivalSpeed="14.50" duration="156.00" routeLength="693.09" waitingTime="93.00" waitingCount="2" stopTime="0.00" timeLoss="110.65" rerouteNo="0" devices="tripinfo_51" vType="DEFAULT_VEHTYPE" speedFactor="1.12" vaporized=""/>
    <tripinfo id="29" depart="63.00" departLane="-226276377#1_0" departPos="5.10" departSpeed="0.00" departDelay="1.59" arrival="268.00" arrivalLane="210831347#0_1" arrivalPos="149.88" arrivalSpeed="14.98" duration="205.00" routeLength="888.52" waitingTime="130.00" waitingCount="2" stopTime="0.00" timeLoss="151.96" rerouteNo="0" devices="tripinfo_29" vType="DEFAULT_VEHTYPE" speedFactor="1.14" vaporized=""/>
    <tripinfo id="53" depart="113.00" departLane="-226276377#1_0" departPos="5.10" departSpeed="0.00" departDelay="0.76" arrival="271.00" arrivalLane="210831347#0_1" arrivalPos="149.88" arrivalSpeed="14.83" duration="158.00" routeLength="888.52" waitingTime="82.00" waitingCount="2" stopTime="0.00" timeLoss="104.42" rerouteNo="0" devices="tripinfo_53" vType="DEFAULT_VEHTYPE" speedFactor="1.15" vaporized=""/>
    <tripinfo id="60" depart="128.00" departLane="666135205#0_0" departPos="5.10" departSpeed="0.00" departDelay="0.94" arrival="271.00" arrivalLane="218680176#0_1" arrivalPos="98.94" arrivalSpeed="9.65" duration="143.00" routeLength="693.09" waitingTime="61.00" waitingCount="2" stopTime="0.00" timeLoss="75.03" rerouteNo="0" devices="tripinfo_60" vType="DEFAULT_VEHTYPE" speedFactor="0.76" vaporized=""/>
    <tripinfo id="43" depart="92.00" departLane="E8_0" departPos="5.10" departSpeed="0.00" departDelay="0.94" arrival="273.00" arrivalLane="218680176#0_1" arrivalPos="98.94" arrivalSpeed="12.16" duration="181.00" routeLength="1637.20" waitingTime="34.00" waitingCount="1" stopTime="0.00" timeLoss="55.03" rerouteNo="0" devices="tripinfo_43" vType="DEFAULT_VEHTYPE" speedFactor="0.91" vaporized=""/>
    <tripinfo id="48" depart="102.00" departLane="E8_0" departPos="5.10" departSpeed="0.00" departDelay="0.35" arrival="274.00" arrivalLane="218680176#0_1" arrivalPos="98.94" arrivalSpeed="12.98" duration="172.00" routeLength="1637.20" waitingTime="31.00" waitingCount="1" stopTime="0.00" timeLoss="56.07" rerouteNo="0" devices="tripinfo_48" vType="DEFAULT_VEHTYPE" speedFactor="0.99" vaporized=""/>
    <tripinfo id="93" depart="197.00" departLane="978867529_0" departPos="5.10" departSpeed="0.00" departDelay="0.06" arrival="275.00" arrivalLane="210831345#1_1" arrivalPos="264.29" arrivalSpeed="13.90" duration="78.00" routeLength="951.92" waitingTime="4.00" waitingCount="1" stopTime="0.00" timeLoss="16.26" rerouteNo="0" devices="tripinfo_93" vType="DEFAULT_VEHTYPE" speedFactor="1.07" vaporized=""/>
    <tripinfo id="38" depart="81.00" departLane="E8_0" departPos="5.10" departSpeed="0.00" departDelay="0.53" arrival="276.00" arrivalLane="218680176#0_1" arrivalPos="98.94" arrivalSpeed="13.95" duration="195.00" routeLength="1637.20" waitingTime="55.00" waitingCount="1" stopTime="0.00" timeLoss="84.15" rerouteNo="0" devices="tripinfo_38" vType="DEFAULT_VEHTYPE" speedFactor="1.04" vaporized=""/>
    <tripinfo id="64" depart="136.00" departLane="978867529_0" departPos="5.10" departSpeed="0.00" departDelay="0.47" arrival="278.00" arrivalLane="39907424_0" arrivalPos="316.44" arrivalSpeed="11.67" duration="142.00" routeLength="1216.15" waitingTime="38.00" waitingCount="1" stopTime="0.00" timeLoss="52.81" rerouteNo="0" devices="tripinfo_64" vType="DEFAULT_VEHTYPE" speedFactor="0.93" vaporized=""/>
    <tripinfo id="76" depart="161.00" departLane="-661251539_0" departPos="5.10" departSpeed="0.00" departDelay="0.06" arrival="278.00" arrivalLane="218680176#0_1" arrivalPos="98.94" arrivalSpeed="14.49" duration="117.00" routeLength="1001.21" waitingTime="21.00" waitingCount="1" stopTime="0.00" timeLoss="50.50" rerouteNo="0" devices="tripinfo_76" vType="DEFAULT_VEHTYPE" speedFactor="1.11" vaporized=""/>
    <tripinfo id="71" depart="151.00" departLane="-231177697#2_0" departPos="5.10" departSpeed="0.00" departDelay="0.65" arrival="279.00" arrivalLane="39907424_0" arrivalPos="316.44" arrivalSpeed="14.21" duration="128.00" routeLength="961.15" waitingTime="44.00" waitingCount="1" stopTime="0.00" timeLoss="63.69" rerouteNo="0" devices="tripinfo_71" vType="DEFAULT_VEHTYPE" speedFactor="1.05" vaporized=""/>
    <tripinfo id="5" depart="11.00" departLane="-226276377#1_0" departPos="5.10" departSpeed="0.00" departDelay="0.41" arrival="280.00" arrivalLane="218680176#0_1" arrivalPos="98.94" arrivalSpeed="14.44" duration="269.00" routeLength="1158.55" waitingTime="176.00" waitingCount="1" stopTime="0.00" timeLoss="193.57" rerouteNo="0" devices="tripinfo_5" vType="DEFAULT_VEHTYPE" speedFactor="1.08" vaporized=""/>
    <tripinfo id="117" depart="248.00" departLane="-231177697#2_0" departPos="5.10" departSpeed="0.00" departDelay="0.24" arrival="297.00" arrivalLane="153964138#0_0" arrivalPos="337.99" arrivalSpeed="16.40" duration="49.00" routeLength="417.38" waitingTime="13.00" waitingCount="1" stopTime="0.00" timeLoss="23.48" rerouteNo="0" devices="tripinfo_117" vType="DEFAULT_VEHTYPE" speedFactor="1.06" vaporized=""/>
    <tripinfo id="86" depart="183.00" departLane="256961141#0_0" departPos="5.10" departSpeed="0.00" departDelay="0.88" arrival="299.00" arrivalLane="39907424_0" arrivalPos="316.44" arrivalSpeed="11.00" duration="116.00" routeLength="873.95" waitingTime="25.00" waitingCount="1" stopTime="0.00" timeLoss="40.86" rerouteNo="0" devices="tripinfo_86" vType="DEFAULT_VEHTYPE" speedFactor="0.81" vaporized=""/>
    <tripinfo id="114" depart="242.00" departLane="-226276377#1_0" departPos="5.10" departSpeed="0.00" departDelay="0.59" arrival="306.00" arrivalLane="450554042#0_0" arrivalPos="622.66" arrivalSpeed="13.19" duration="64.00" routeLength="763.53" waitingTime="0.00" waitingCount="0" stopTime="0.00" timeLoss="7.01" rerouteNo="0" devices="tripinfo_114" vType="DEFAULT_VEHTYPE" speedFactor="0.85" vaporized=""/>
    <tripinfo id="74" depart="157.00" departLane="-226276377#1_0" departPos="5.10" departSpeed="0.00" departDelay="0.29" arrival="310.00" arrivalLane="210831345#1_0" arrivalPos="264.29" arrivalSpeed="10.48" duration="153.00" routeLength="977.93" waitingTime="48.00" waitingCount="2" stopTime="0.00" timeLoss="66.51" rerouteNo="0" devices="tripinfo_74" vType="DEFAULT_VEHTYPE" speedFactor="0.79" vaporized=""/>
    <tripinfo id="77" depart="164.00" departLane="-226276377#1_0" departPos="5.10" departSpeed="0.00" departDelay="0.94" arrival="311.00" arrivalLane="210831345#1_1" arrivalPos="264.29" arrivalSpeed="11.15" duration="147.00" routeLength="977.93" waitingTime="41.00" waitingCount="2" stopTime="0.00" timeLoss="66.64" rerouteNo="0" devices="tripinfo_77" vType="DEFAULT_VEHTYPE" speedFactor="0.85" vaporized=""/>
    <tripinfo id="95" depart="202.00" departLane="-661251539_0" departPos="5.10" departSpeed="0.00" departDelay="0.82" arrival="313.00" arrivalLane="210831345#1_0" arrivalPos="264.29" arrivalSpeed="13.66" duration="111.00" routeLength="826.64" waitingTime="34.00" waitingCount="2" stopTime="0.00" timeLoss="53.31" rerouteNo="0" devices="tripinfo_95" vType="DEFAULT_VEHTYPE" speedFactor="1.05" vaporized=""/>
    <tripinfo id="30" depart="64.00" departLane="E8_0" departPos="5.10" departSpeed="0.00" departDelay="0.47" arrival="317.00" arrivalLane="226276377#0_1" arrivalPos="135.52" arrivalSpeed="14.29" duration="253.00" routeLength="784.51" waitingTime="188.00" waitingCount="1" stopTime="0.00" timeLoss="198.86" rerouteNo="0" devices="tripinfo_30" vType="DEFAULT_VEHTYPE" speedFactor="1.05" vaporized=""/>
    <tripinfo id="113" depart="240.00" departLane="256961141#0_0" departPos="5.10" departSpeed="0.00" departDelay="0.71" arrival="323.00" arrivalLane="39907424_0" arrivalPos="316.44" arrivalSpeed="10.96" duration="83.00" routeLength="873.95" waitingTime="0.00" waitingCount="0" stopTime="0.00" timeLoss="9.26" rerouteNo="0" devices="tripinfo_113" vType="DEFAULT_VEHTYPE" speedFactor="0.82" vaporized=""/>
    <tripinfo id="0" depart="0.00" departLane="65746828#0_0" departPos="5.10" departSpeed="0.00" departDelay="0.00" arrival="324.00" arrivalLane="-256961141#1_1" arrivalPos="204.72" arrivalSpeed="12.66" duration="324.00" routeLength="931.50" waitingTime="247.00" waitingCount="1" stopTime="0.00" timeLoss="259.09" rerouteNo="0" devices="tripinfo_0" vType="DEFAULT_VEHTYPE" speedFactor="0.95" vaporized=""/>
    <tripinfo id="75" depart="159.00" departLane="E8_0" departPos="5.10" departSpeed="0.00" departDelay="0.18" arrival="325.00" arrivalLane="226276377#0_1" arrivalPos="135.52" arrivalSpeed="10.09" duration="166.00" routeLength="784.51" waitingTime="77.00" waitingCount="1" stopTime="0.00" timeLoss="89.44" rerouteNo="0" devices="tripinfo_75" vType="DEFAULT_VEHTYPE" speedFactor="0.75" vaporized=""/>
    <tripinfo id="4" depart="9.00" departLane="-661251539_0" departPos="5.10" departSpeed="0.00" departDelay="0.53" arrival="326.00" arrivalLane="-256961141#1_1" arrivalPos="204.72" arrivalSpeed="14.11" duration="317.00" routeLength="872.91" waitingTime="244.00" waitingCount="1" stopTime="0.00" timeLoss="259.54" rerouteNo="0" devices="tripinfo_4" vType="DEFAULT_VEHTYPE" speedFactor="1.06" vaporized=""/>
    <tripinfo id="115" depart="244.00" departLane="-218680176#1_0" departPos="5.10" departSpeed="0.00" departDelay="0.47" arrival="326.00" arrivalLane="153964138#0_2" arrivalPos="337.99" arrivalSpeed="18.96" duration="82.00" routeLength="462.27" waitingTime="46.00" waitingCount="1" stopTime="0.00" timeLoss="56.44" rerouteNo="0" devices="tripinfo_115" vType="DEFAULT_VEHTYPE" speedFactor="1.16" vaporized=""/>
    <tripinfo id="85" depart="180.00" departLane="E8_0" departPos="5.10" departSpeed="0.00" departDelay="0.00" arrival="327.00" arrivalLane="226276377#0_1" arrivalPos="135.52" arrivalSpeed="13.09" duration="147.00" routeLength="784.51" waitingTime="71.00" waitingCount="1" stopTime="0.00" timeLoss="86.23" rerouteNo="0" devices="tripinfo_85" vType="DEFAULT_VEHTYPE" speedFactor="0.95" vaporized=""/>
    <tripinfo id="121" depart="257.00" departLane="256961141#0_0" departPos="5.10" departSpeed="0.00" departDelay="0.76" arrival="327.00" arrivalLane="450554042#0_0" arrivalPos="622.66" arrivalSpeed="13.14" duration="70.00" routeLength="853.74" waitingTime="0.00" waitingCount="0" stopTime="0.00" timeLoss="6.90" rerouteNo="0" devices="tripinfo_121" vType="DEFAULT_VEHTYPE" speedFactor="0.86" vaporized=""/>
    <tripinfo id="20" depart="43.00" departLane="666135205#0_0" departPos="5.10" departSpeed="0.00" departDelay="0.65" arrival="328.00" arrivalLane="-256961141#1_1" arrivalPos="204.72" arrivalSpeed="14.29" duration="285.00" routeLength="1068.72" waitingTime="200.00" waitingCount="2" stopTime="0.00" timeLoss="220.28" rerouteNo="0" devices="tripinfo_20" vType="DEFAULT_VEHTYPE" speedFactor="1.12" vaporized=""/>
    <tripinfo id="110" depart="233.00" departLane="E8_0" departPos="5.10" departSpeed="0.00" departDelay="0.06" arrival="328.00" arrivalLane="226276377#0_1" arrivalPos="135.52" arrivalSpeed="10.83" duration="95.00" routeLength="784.51" waitingTime="15.00" waitingCount="1" stopTime="0.00" timeLoss="29.60" rerouteNo="0" devices="tripinfo_110" vType="DEFAULT_VEHTYPE" speedFactor="0.87" vaporized=""/>
    <tripinfo id="128" depart="272.00" departLane="-218680176#1_0" departPos="5.10" departSpeed="0.00" departDelay="0.94" arrival="334.00" arrivalLane="153964138#0_1" arrivalPos="337.99" arrivalSpeed="13.68" duration="62.00" routeLength="462.27" waitingTime="19.00" waitingCount="1" stopTime="0.00" timeLoss="27.90" rerouteNo="0" devices="tripinfo_128" vType="DEFAULT_VEHTYPE" speedFactor="0.88" vaporized=""/>
    <tripinfo id="9" depart="20.00" departLane="978867529_0" departPos="5.10" departSpeed="0.00" departDelay="0.94" arrival="335.00" arrivalLane="-256961141#1_1" arrivalPos="204.72" arrivalSpeed="10.38" duration="315.00" routeLength="1459.36" waitingTime="167.00" waitingCount="2" stopTime="0.00" timeLoss="193.53" rerouteNo="0" devices="tripinfo_9" vType="DEFAULT_VEHTYPE" speedFactor="0.79" vaporized=""/>
    <tripinfo id="13" depart="28.00" departLane="-218680176#1_0" departPos="5.10" departSpeed="0.00" departDelay="0.47" arrival="335.00" arrivalLane="-256961141#1_0" arrivalPos="204.72" arrivalSpeed="13.19" duration="307.00" routeLength="1207.38" waitingTime="187.00" waitingCount="3" stopTime="0.00" timeLoss="226.70" rerouteNo="0" devices="tripinfo_13" vType="DEFAULT_VEHTYPE" speedFactor="1.02" vaporized=""/>
    <tripinfo id="132" depart="280.00" departLane="978867529_0" departPos="5.10" departSpeed="0.00" departDelay="0.47" arrival="338.00" arrivalLane="231177697#0_1" arrivalPos="74.44" arrivalSpeed="13.25" duration="58.00" routeLength="437.06" waitingTime="21.00" waitingCount="1" stopTime="0.00" timeLoss="30.29" rerouteNo="0" devices="tripinfo_132" vType="DEFAULT_VEHTYPE" speedFactor="1.04" vaporized=""/>