<?xml version="1.0" encoding="UTF-8"?>

<!-- generated on 2024-09-03 02:45:33 by Eclipse SUMO sumo Version 1.20.0
<configuration xmlns:xsi="http://www.w3.org/2001/XMLSchema-instance" xsi:noNamespaceSchemaLocation="http://sumo.dlr.de/xsd/sumoConfiguration.xsd">

    <input>
        <net-file value="c:\self\School\Master\Disertation\code\RESCO\resco_benchmark\environments/unirii/osm.net.xml.gz"/>
        <route-files value="c:\self\School\Master\Disertation\code\RESCO\resco_benchmark\environments/unirii/osm.passenger.trips.xml"/>
        <additional-files value="c:\self\School\Master\Disertation\code\RESCO\resco_benchmark\environments/unirii/osm.poly.xml.gz"/>
    </input>

    <output>
        <tripinfo-output value="C:\self\School\Master\Disertation\code\RESCO\results\IA2C-tr0-unirii-0-drq_norm-wait_norm\tripinfo_51.xml"/>
        <tripinfo-output.write-unfinished value="true"/>
    </output>

    <processing>
        <ignore-route-errors value="true"/>
        <time-to-teleport value="-1"/>
    </processing>

    <routing>
        <device.rerouting.adaptation-steps value="18"/>
        <device.rerouting.adaptation-interval value="10"/>
    </routing>

    <report>
        <verbose value="true"/>
        <no-warnings value="True"/>
        <duration-log.statistics value="true"/>
        <no-step-log value="True"/>
    </report>

    <traci_server>
        <remote-port value="52340"/>
    </traci_server>

    <random_number>
        <random value="true"/>
    </random_number>

    <gui_only>
        <gui-settings-file value="c:\self\School\Master\Disertation\code\RESCO\resco_benchmark\environments/unirii/osm.view.xml"/>
    </gui_only>

</configuration>
-->

<tripinfos xmlns:xsi="http://www.w3.org/2001/XMLSchema-instance" xsi:noNamespaceSchemaLocation="http://sumo.dlr.de/xsd/tripinfo_file.xsd">
    <tripinfo id="6" depart="13.00" departLane="-218680176#1_0" departPos="5.10" departSpeed="0.00" departDelay="0.29" arrival="56.00" arrivalLane="153964138#0_1" arrivalPos="337.99" arrivalSpeed="14.18" duration="43.00" routeLength="462.27" waitingTime="1.00" waitingCount="1" stopTime="0.00" timeLoss="10.08" rerouteNo="0" devices="tripinfo_6" vType="DEFAULT_VEHTYPE" speedFactor="0.91" vaporized=""/>
    <tripinfo id="1" depart="3.00" departLane="-231177697#2_0" departPos="5.10" departSpeed="0.00" departDelay="0.88" arrival="80.00" arrivalLane="210831345#1_1" arrivalPos="264.29" arrivalSpeed="11.81" duration="77.00" routeLength="696.92" waitingTime="11.00" waitingCount="1" stopTime="0.00" timeLoss="21.93" rerouteNo="0" devices="tripinfo_1" vType="DEFAULT_VEHTYPE" speedFactor="0.94" vaporized=""/>
    <tripinfo id="4" depart="9.00" departLane="-661251539_0" departPos="5.10" departSpeed="0.00" departDelay="0.53" arrival="98.00" arrivalLane="-256961141#1_1" arrivalPos="204.72" arrivalSpeed="12.90" duration="89.00" routeLength="872.91" waitingTime="16.00" waitingCount="1" stopTime="0.00" timeLoss="28.27" rerouteNo="0" devices="tripinfo_4" vType="DEFAULT_VEHTYPE" speedFactor="1.01" vaporized=""/>
    <tripinfo id="0" depart="0.00" departLane="65746828#0_0" departPos="5.10" departSpeed="0.00" departDelay="0.00" arrival="100.00" arrivalLane="-256961141#1_1" arrivalPos="204.72" arrivalSpeed="13.14" duration="100.00" routeLength="931.50" waitingTime="21.00" waitingCount="2" stopTime="0.00" timeLoss="38.50" rerouteNo="0" devices="tripinfo_0" vType="DEFAULT_VEHTYPE" speedFactor="1.02" vaporized=""/>
    <tripinfo id="2" depart="5.00" departLane="666135205#0_0" departPos="5.10" departSpeed="0.00" departDelay="0.76" arrival="113.00" arrivalLane="231177697#0_0" arrivalPos="74.44" arrivalSpeed="11.30" duration="108.00" routeLength="649.17" waitingTime="38.00" waitingCount="1" stopTime="0.00" timeLoss="50.26" rerouteNo="0" devices="tripinfo_2" vType="DEFAULT_VEHTYPE" speedFactor="0.84" vaporized=""/>
    <tripinfo id="27" depart="58.00" departLane="65746828#0_0" departPos="5.10" departSpeed="0.00" departDelay="0.82" arrival="119.00" arrivalLane="226276377#0_0" arrivalPos="135.52" arrivalSpeed="14.18" duration="61.00" routeLength="841.69" waitingTime="0.00" waitingCount="0" stopTime="0.00" timeLoss="9.83" rerouteNo="0" devices="tripinfo_27" vType="DEFAULT_VEHTYPE" speedFactor="1.11" vaporized=""/>
    <tripinfo id="3" depart="7.00" departLane="E8_0" departPos="5.10" departSpeed="0.00" departDelay="0.65" arrival="120.00" arrivalLane="-256961141#1_0" arrivalPos="204.72" arrivalSpeed="15.08" duration="113.00" routeLength="832.89" waitingTime="47.00" waitingCount="1" stopTime="0.00" timeLoss="58.70" rerouteNo="0" devices="tripinfo_3" vType="DEFAULT_VEHTYPE" speedFactor="1.13" vaporized=""/>
    <tripinfo id="40" depart="85.00" departLane="65746828#0_0" departPos="5.10" departSpeed="0.00" departDelay="0.29" arrival="122.00" arrivalLane="210831345#1_0" arrivalPos="264.29" arrivalSpeed="13.53" duration="37.00" routeLength="446.75" waitingTime="0.00" waitingCount="0" stopTime="0.00" timeLoss="4.24" rerouteNo="0" devices="tripinfo_40" vType="DEFAULT_VEHTYPE" speedFactor="0.99" vaporized=""/>
    <tripinfo id="35" depart="75.00" departLane="-226276377#1_0" departPos="5.10" departSpeed="0.00" departDelay="0.88" arrival="140.00" arrivalLane="450554042#0_0" arrivalPos="622.66" arrivalSpeed="16.22" duration="65.00" routeLength="763.53" waitingTime="6.00" waitingCount="1" stopTime="0.00" timeLoss="17.81" rerouteNo="0" devices="tripinfo_35" vType="DEFAULT_VEHTYPE" speedFactor="1.03" vaporized=""/>
    <tripinfo id="30" depart="64.00" departLane="E8_0" departPos="5.10" departSpeed="0.00" departDelay="0.47" arrival="142.00" arrivalLane="226276377#0_1" arrivalPos="135.52" arrivalSpeed="14.98" duration="78.00" routeLength="784.51" waitingTime="16.00" waitingCount="1" stopTime="0.00" timeLoss="28.07" rerouteNo="0" devices="tripinfo_30" vType="DEFAULT_VEHTYPE" speedFactor="1.15" vaporized=""/>
    <tripinfo id="12" depart="26.00" departLane="E8_0" departPos="5.10" departSpeed="0.00" departDelay="0.59" arrival="153.00" arrivalLane="210831347#0_1" arrivalPos="149.88" arrivalSpeed="15.18" duration="127.00" routeLength="1367.17" waitingTime="28.00" waitingCount="1" stopTime="0.00" timeLoss="42.36" rerouteNo="0" devices="tripinfo_12" vType="DEFAULT_VEHTYPE" speedFactor="1.12" vaporized=""/>
    <tripinfo id="25" depart="53.00" departLane="-661251539_0" departPos="5.10" departSpeed="0.00" departDelay="0.06" arrival="153.00" arrivalLane="153964138#0_0" arrivalPos="337.99" arrivalSpeed="17.23" duration="100.00" routeLength="1239.04" waitingTime="3.00" waitingCount="1" stopTime="0.00" timeLoss="19.08" rerouteNo="0" devices="tripinfo_25" vType="DEFAULT_VEHTYPE" speedFactor="1.06" vaporized=""/>
    <tripinfo id="21" depart="45.00" departLane="-231177697#2_0" departPos="5.10" departSpeed="0.00" departDelay="0.53" arrival="154.00" arrivalLane="210831345#1_1" arrivalPos="264.29" arrivalSpeed="12.95" duration="109.00" routeLength="696.92" waitingTime="44.00" waitingCount="1" stopTime="0.00" timeLoss="56.58" rerouteNo="0" devices="tripinfo_21" vType="DEFAULT_VEHTYPE" speedFactor="0.98" vaporized=""/>
    <tripinfo id="33" depart="70.00" departLane="-231177697#2_0" departPos="5.10" departSpeed="0.00" departDelay="0.12" arrival="154.00" arrivalLane="-256961141#1_1" arrivalPos="204.72" arrivalSpeed="14.48" duration="84.00" routeLength="1204.36" waitingTime="0.00" waitingCount="0" stopTime="0.00" timeLoss="9.45" rerouteNo="0" devices="tripinfo_33" vType="DEFAULT_VEHTYPE" speedFactor="1.10" vaporized=""/>
    <tripinfo id="34" depart="72.00" departLane="-231177697#2_0" departPos="5.10" departSpeed="0.00" departDelay="0.00" arrival="156.00" arrivalLane="210831345#1_1" arrivalPos="264.29" arrivalSpeed="13.04" duration="84.00" routeLength="696.92" waitingTime="20.00" waitingCount="1" stopTime="0.00" timeLoss="31.05" rerouteNo="0" devices="tripinfo_34" vType="DEFAULT_VEHTYPE" speedFactor="0.98" vaporized=""/>
    <tripinfo id="39" depart="83.00" departLane="-231177697#2_0" departPos="5.10" departSpeed="0.00" departDelay="0.41" arrival="157.00" arrivalLane="210831345#1_1" arrivalPos="264.29" arrivalSpeed="12.77" duration="74.00" routeLength="696.92" waitingTime="10.00" waitingCount="1" stopTime="0.00" timeLoss="21.86" rerouteNo="0" devices="tripinfo_39" vType="DEFAULT_VEHTYPE" speedFactor="0.98" vaporized=""/>
    <tripinfo id="36" depart="77.00" departLane="978867529_0" departPos="5.10" departSpeed="0.00" departDelay="0.76" arrival="159.00" arrivalLane="210831345#1_1" arrivalPos="264.29" arrivalSpeed="13.59" duration="82.00" routeLength="951.92" waitingTime="0.00" waitingCount="0" stopTime="0.00" timeLoss="20.07" rerouteNo="0" devices="tripinfo_36" vType="DEFAULT_VEHTYPE" speedFactor="1.06" vaporized=""/>
    <tripinfo id="11" depart="24.00" departLane="-661251539_0" departPos="5.10" departSpeed="0.00" departDelay="0.71" arrival="161.00" arrivalLane="153964138#0_0" arrivalPos="337.99" arrivalSpeed="13.92" duration="137.00" routeLength="1239.04" waitingTime="19.00" waitingCount="2" stopTime="0.00" timeLoss="35.42" rerouteNo="0" devices="tripinfo_11" vType="DEFAULT_VEHTYPE" speedFactor="0.84" vaporized=""/>
    <tripinfo id="50" depart="106.00" departLane="-218680176#1_0" departPos="5.10" departSpeed="0.00" departDelay="0.12" arrival="179.00" arrivalLane="231177697#0_0" arrivalPos="74.44" arrivalSpeed="12.54" duration="73.00" routeLength="205.97" waitingTime="42.00" waitingCount="1" stopTime="0.00" timeLoss="56.79" rerouteNo="0" devices="tripinfo_50" vType="DEFAULT_VEHTYPE" speedFactor="0.93" vaporized=""/>
    <tripinfo id="61" depart="130.00" departLane="978867529_0" departPos="5.10" departSpeed="0.00" departDelay="0.82" arrival="189.00" arrivalLane="218680176#0_0" arrivalPos="98.94" arrivalSpeed="11.50" duration="59.00" routeLength="442.15" waitingTime="17.00" waitingCount="1" stopTime="0.00" timeLoss="27.19" rerouteNo="0" devices="tripinfo_61" vType="DEFAULT_VEHTYPE" speedFactor="0.91" vaporized=""/>
    <tripinfo id="10" depart="23.00" departLane="978867529_0" departPos="5.10" departSpeed="0.00" departDelay="1.82" arrival="213.00" arrivalLane="231177697#0_1" arrivalPos="74.44" arrivalSpeed="15.34" duration="190.00" routeLength="437.06" waitingTime="154.00" waitingCount="1" stopTime="0.00" timeLoss="164.44" rerouteNo="0" devices="tripinfo_10" vType="DEFAULT_VEHTYPE" speedFactor="1.14" vaporized=""/>
    <tripinfo id="69" depart="147.00" departLane="666135205#0_0" departPos="5.10" departSpeed="0.00" departDelay="0.88" arrival="214.00" arrivalLane="153964138#0_0" arrivalPos="337.99" arrivalSpeed="16.61" duration="67.00" routeLength="924.87" waitingTime="0.00" waitingCount="0" stopTime="0.00" timeLoss="6.87" rerouteNo="0" devices="tripinfo_69" vType="DEFAULT_VEHTYPE" speedFactor="1.06" vaporized=""/>
    <tripinfo id="15" depart="33.00" departLane="978867529_0" departPos="5.10" departSpeed="0.00" departDelay="1.24" arrival="216.00" arrivalLane="231177697#0_1" arrivalPos="74.44" arrivalSpeed="12.73" duration="183.00" routeLength="437.06" waitingTime="142.00" waitingCount="1" stopTime="0.00" timeLoss="151.50" rerouteNo="0" devices="tripinfo_15" vType="DEFAULT_VEHTYPE" speedFactor="0.93" vaporized=""/>
    <tripinfo id="17" depart="36.00" departLane="-661251539_0" departPos="5.10" departSpeed="0.00" departDelay="0.00" arrival="216.00" arrivalLane="218680176#0_1" arrivalPos="98.94" arrivalSpeed="13.20" duration="180.00" routeLength="1001.21" waitingTime="89.00" waitingCount="2" stopTime="0.00" timeLoss="107.82" rerouteNo="0" devices="tripinfo_17" vType="DEFAULT_VEHTYPE" speedFactor="1.02" vaporized=""/>
    <tripinfo id="32" depart="68.00" departLane="978867529_0" departPos="5.10" departSpeed="0.00" departDelay="0.24" arrival="218.00" arrivalLane="231177697#0_1" arrivalPos="74.44" arrivalSpeed="12.40" duration="150.00" routeLength="437.06" waitingTime="110.00" waitingCount="1" stopTime="0.00" timeLoss="118.51" rerouteNo="0" devices="tripinfo_32" vType="DEFAULT_VEHTYPE" speedFactor="0.91" vaporized=""/>
    <tripinfo id="75" depart="159.00" departLane="E8_0" departPos="5.10" departSpeed="0.00" departDelay="0.18" arrival="219.00" arrivalLane="226276377#0_1" arrivalPos="135.52" arrivalSpeed="13.37" duration="60.00" routeLength="784.51" waitingTime="0.00" waitingCount="0" stopTime="0.00" timeLoss="5.03" rerouteNo="0" devices="tripinfo_75" vType="DEFAULT_VEHTYPE" speedFactor="1.04" vaporized=""/>
    <tripinfo id="5" depart="11.00" departLane="-226276377#1_0" departPos="5.10" departSpeed="0.00" departDelay="0.41" arrival="220.00" arrivalLane="218680176#0_1" arrivalPos="98.94" arrivalSpeed="10.03" duration="209.00" routeLength="1158.55" waitingTime="88.00" waitingCount="2" stopTime="0.00" timeLoss="108.20" rerouteNo="0" devices="tripinfo_5" vType="DEFAULT_VEHTYPE" speedFactor="0.80" vaporized=""/>
    <tripinfo id="51" depart="108.00" departLane="666135205#0_0" departPos="5.10" departSpeed="0.00" departDelay="0.00" arrival="222.00" arrivalLane="218680176#0_1" arrivalPos="98.94" arrivalSpeed="13.74" duration="114.00" routeLength="693.09" waitingTime="43.00" waitingCount="2" stopTime="0.00" timeLoss="62.82" rerouteNo="0" devices="tripinfo_51" vType="DEFAULT_VEHTYPE" speedFactor="1.01" vaporized=""/>
    <tripinfo id="60" depart="128.00" departLane="666135205#0_0" departPos="5.10" departSpeed="0.00" departDelay="0.94" arrival="223.00" arrivalLane="218680176#0_1" arrivalPos="98.94" arrivalSpeed="12.64" duration="95.00" routeLength="693.09" waitingTime="27.00" waitingCount="1" stopTime="0.00" timeLoss="42.46" rerouteNo="0" devices="tripinfo_60" vType="DEFAULT_VEHTYPE" speedFactor="0.98" vaporized=""/>
    <tripinfo id="55" depart="117.00" departLane="978867529_0" departPos="5.10" departSpeed="0.00" departDelay="0.53" arrival="227.00" arrivalLane="210831345#1_1" arrivalPos="264.29" arrivalSpeed="13.90" duration="110.00" routeLength="951.92" waitingTime="37.00" waitingCount="1" stopTime="0.00" timeLoss="49.26" rerouteNo="0" devices="tripinfo_55" vType="DEFAULT_VEHTYPE" speedFactor="1.08" vaporized=""/>
    <tripinfo id="22" depart="47.00" departLane="-218680176#1_0" departPos="5.10" departSpeed="0.00" departDelay="0.41" arrival="231.00" arrivalLane="210831345#1_1" arrivalPos="264.29" arrivalSpeed="12.57" duration="184.00" routeLength="699.94" waitingTime="113.00" waitingCount="2" stopTime="0.00" timeLoss="129.85" rerouteNo="0" devices="tripinfo_22" vType="DEFAULT_VEHTYPE" speedFactor="0.96" vaporized=""/>
    <tripinfo id="23" depart="50.00" departLane="-218680176#1_0" departPos="5.10" departSpeed="0.00" departDelay="1.29" arrival="232.00" arrivalLane="210831345#1_1" arrivalPos="264.29" arrivalSpeed="13.48" duration="182.00" routeLength="699.94" waitingTime="110.00" waitingCount="2" stopTime="0.00" timeLoss="129.95" rerouteNo="0" devices="tripinfo_23" vType="DEFAULT_VEHTYPE" speedFactor="0.99" vaporized=""/>
    <tripinfo id="62" depart="132.00" departLane="-218680176#1_0" departPos="5.10" departSpeed="0.00" departDelay="0.71" arrival="234.00" arrivalLane="210831345#1_1" arrivalPos="264.29" arrivalSpeed="12.66" duration="102.00" routeLength="699.94" waitingTime="26.00" waitingCount="2" stopTime="0.00" timeLoss="50.54" rerouteNo="0" devices="tripinfo_62" vType="DEFAULT_VEHTYPE" speedFactor="1.00" vaporized=""/>
    <tripinfo id="68" depart="144.00" departLane="-218680176#1_0" departPos="5.10" departSpeed="0.00" departDelay="0.00" arrival="234.00" arrivalLane="231177697#0_0" arrivalPos="74.44" arrivalSpeed="11.42" duration="90.00" routeLength="205.97" waitingTime="55.00" waitingCount="2" stopTime="0.00" timeLoss="73.25" rerouteNo="0" devices="tripinfo_68" vType="DEFAULT_VEHTYPE" speedFactor="0.90" vaporized=""/>
    <tripinfo id="86" depart="183.00" departLane="256961141#0_0" departPos="5.10" departSpeed="0.00" departDelay="0.88" arrival="247.00" arrivalLane="39907424_0" arrivalPos="316.44" arrivalSpeed="14.20" duration="64.00" routeLength="873.95" waitingTime="0.00" waitingCount="0" stopTime="0.00" timeLoss="8.96" rerouteNo="0" devices="tripinfo_86" vType="DEFAULT_VEHTYPE" speedFactor="1.09" vaporized=""/>
    <tripinfo id="79" depart="168.00" departLane="-231177697#2_0" departPos="5.10" departSpeed="0.00" departDelay="0.71" arrival="248.00" arrivalLane="153964138#0_0" arrivalPos="337.99" arrivalSpeed="15.96" duration="80.00" routeLength="417.38" waitingTime="43.00" waitingCount="1" stopTime="0.00" timeLoss="53.42" rerouteNo="0" devices="tripinfo_79" vType="DEFAULT_VEHTYPE" speedFactor="1.01" vaporized=""/>
    <tripinfo id="46" depart="98.00" departLane="978867529_0" departPos="5.10" departSpeed="0.00" departDelay="0.59" arrival="269.00" arrivalLane="210831347#0_0" arrivalPos="149.88" arrivalSpeed="14.91" duration="171.00" routeLength="812.56" waitingTime="107.00" waitingCount="1" stopTime="0.00" timeLoss="119.33" rerouteNo="0" devices="tripinfo_46" vType="DEFAULT_VEHTYPE" speedFactor="1.08" vaporized=""/>
    <tripinfo id="54" depart="115.00" departLane="256961141#0_0" departPos="5.10" departSpeed="0.00" departDelay="0.65" arrival="271.00" arrivalLane="450554042#0_1" arrivalPos="622.66" arrivalSpeed="18.38" duration="156.00" routeLength="853.74" waitingTime="92.00" waitingCount="1" stopTime="0.00" timeLoss="106.62" rerouteNo="0" devices="tripinfo_54" vType="DEFAULT_VEHTYPE" speedFactor="1.11" vaporized=""/>
    <tripinfo id="47" depart="100.00" departLane="-218680176#1_0" departPos="5.10" departSpeed="0.00" departDelay="0.47" arrival="273.00" arrivalLane="210831347#0_0" arrivalPos="149.88" arrivalSpeed="13.80" duration="173.00" routeLength="560.58" waitingTime="107.00" waitingCount="2" stopTime="0.00" timeLoss="133.01" rerouteNo="0" devices="tripinfo_47" vType="DEFAULT_VEHTYPE" speedFactor="1.06" vaporized=""/>
    <tripinfo id="16" depart="34.00" departLane="256961141#0_0" departPos="5.10" departSpeed="0.00" departDelay="0.12" arrival="274.00" arrivalLane="450554042#0_0" arrivalPos="622.66" arrivalSpeed="14.78" duration="240.00" routeLength="853.74" waitingTime="172.00" waitingCount="1" stopTime="0.00" timeLoss="181.45" rerouteNo="0" devices="tripinfo_16" vType="DEFAULT_VEHTYPE" speedFactor="0.93" vaporized=""/>
    <tripinfo id="88" depart="187.00" departLane="-218680176#1_0" departPos="5.10" departSpeed="0.00" departDelay="0.65" arrival="276.00" arrivalLane="210831347#0_0" arrivalPos="149.88" arrivalSpeed="14.07" duration="89.00" routeLength="560.58" waitingTime="25.00" waitingCount="1" stopTime="0.00" timeLoss="49.37" rerouteNo="0" devices="tripinfo_88" vType="DEFAULT_VEHTYPE" speedFactor="1.06" vaporized=""/>
    <tripinfo id="115" depart="244.00" departLane="-218680176#1_0" departPos="5.10" departSpeed="0.00" departDelay="0.47" arrival="276.00" arrivalLane="153964138#0_2" arrivalPos="337.99" arrivalSpeed="17.74" duration="32.00" routeLength="462.27" waitingTime="0.00" waitingCount="0" stopTime="0.00" timeLoss="4.57" rerouteNo="0" devices="tripinfo_115" vType="DEFAULT_VEHTYPE" speedFactor="1.10" vaporized=""/>
    <tripinfo id="95" depart="202.00" departLane="-661251539_0" departPos="5.10" departSpeed="0.00" departDelay="0.82" arrival="280.00" arrivalLane="210831345#1_0" arrivalPos="264.29" arrivalSpeed="13.36" duration="78.00" routeLength="826.64" waitingTime="3.00" waitingCount="1" stopTime="0.00" timeLoss="19.89" rerouteNo="0" devices="tripinfo_95" vType="DEFAULT_VEHTYPE" speedFactor="1.04" vaporized=""/>
    <tripinfo id="77" depart="164.00" departLane="-226276377#1_0" departPos="5.10" departSpeed="0.00" departDelay="0.94" arrival="290.00" arrivalLane="210831345#1_0" arrivalPos="264.29" arrivalSpeed="17.87" duration="126.00" routeLength="977.93" waitingTime="54.00" waitingCount="1" stopTime="0.00" timeLoss="73.28" rerouteNo="0" devices="tripinfo_77" vType="DEFAULT_VEHTYPE" speedFactor="1.30" vaporized=""/>
    <tripinfo id="85" depart="180.00" departLane="E8_0" departPos="5.10" departSpeed="0.00" departDelay="0.00" arrival="292.00" arrivalLane="226276377#0_1" arrivalPos="135.52" arrivalSpeed="14.71" duration="112.00" routeLength="784.51" waitingTime="47.00" waitingCount="1" stopTime="0.00" timeLoss="58.45" rerouteNo="0" devices="tripinfo_85" vType="DEFAULT_VEHTYPE" speedFactor="1.07" vaporized=""/>
    <tripinfo id="110" depart="233.00" departLane="E8_0" departPos="5.10" departSpeed="0.00" departDelay="0.06" arrival="295.00" arrivalLane="226276377#0_1" arrivalPos="135.52" arrivalSpeed="13.70" duration="62.00" routeLength="784.51" waitingTime="0.00" waitingCount="0" stopTime="0.00" timeLoss="6.23" rerouteNo="0" devices="tripinfo_110" vType="DEFAULT_VEHTYPE" speedFactor="1.03" vaporized=""/>
    <tripinfo id="20" depart="43.00" departLane="666135205#0_0" departPos="5.10" departSpeed="0.00" departDelay="0.65" arrival="298.00" arrivalLane="-256961141#1_1" arrivalPos="204.72" arrivalSpeed="12.43" duration="255.00" routeLength="1068.72" waitingTime="168.00" waitingCount="2" stopTime="0.00" timeLoss="182.15" rerouteNo="0" devices="tripinfo_20" vType="DEFAULT_VEHTYPE" speedFactor="0.99" vaporized=""/>
    <tripinfo id="114" depart="242.00" departLane="-226276377#1_0" departPos="5.10" departSpeed="0.00" departDelay="0.59" arrival="299.00" arrivalLane="450554042#0_0" arrivalPos="622.66" arrivalSpeed="15.55" duration="57.00" routeLength="763.53" waitingTime="0.00" waitingCount="0" stopTime="0.00" timeLoss="6.61" rerouteNo="0" devices="tripinfo_114" vType="DEFAULT_VEHTYPE" speedFactor="0.95" vaporized=""/>
    <tripinfo id="64" depart="136.00" departLane="978867529_0" departPos="5.10" departSpeed="0.00" departDelay="0.47" arrival="300.00" arrivalLane="39907424_0" arrivalPos="316.44" arrivalSpeed="15.00" duration="164.00" routeLength="1216.15" waitingTime="62.00" waitingCount="2" stopTime="0.00" timeLoss="92.30" rerouteNo="0" devices="tripinfo_64" vType="DEFAULT_VEHTYPE" speedFactor="1.15" vaporized=""/>
    <tripinfo id="117" depart="248.00" departLane="-231177697#2_0" departPos="5.10" departSpeed="0.00" departDelay="0.24" arrival="301.00" arrivalLane="153964138#0_0" arrivalPos="337.99" arrivalSpeed="18.17" duration="53.00" routeLength="417.38" waitingTime="19.00" waitingCount="1" stopTime="0.00" timeLoss="29.05" rerouteNo="0" devices="tripinfo_117" vType="DEFAULT_VEHTYPE" speedFactor="1.13" vaporized=""/>
    <tripinfo id="103" depart="219.00" departLane="-661251539_0" departPos="5.10" departSpeed="0.00" departDelay="0.88" arrival="303.00" arrivalLane="-256961141#1_1" arrivalPos="204.72" arrivalSpeed="12.13" duration="84.00" routeLength="872.91" waitingTime="1.00" waitingCount="1" stopTime="0.00" timeLoss="14.33" rerouteNo="0" devices="tripinfo_103" vType="DEFAULT_VEHTYPE" speedFactor="0.88" vaporized=""/>
    <tripinfo id="9" depart="20.00" departLane="978867529_0" departPos="5.10" departSpeed="0.00" departDelay="0.94" arrival="310.00" arrivalLane="-256961141#1_1" arrivalPos="204.72" arrivalSpeed="12.89" duration="290.00" routeLength="1459.36" waitingTime="175.00" waitingCount="2" stopTime="0.00" timeLoss="195.04" rerouteNo="0" devices="tripinfo_9" vType="DEFAULT_VEHTYPE" speedFactor="1.01" vaporized=""/>
    <tripinfo id="13" depart="28.00" departLane="-218680176#1_0" departPos="5.10" departSpeed="0.00" departDelay="0.47" arrival="311.00" arrivalLane="-256961141#1_1" arrivalPos="204.72" arrivalSpeed="14.48" duration="283.00" routeLength="1207.38" waitingTime="185.00" waitingCount="2" stopTime="0.00" timeLoss="206.03" rerouteNo="0" devices="tripinfo_13" vType="DEFAULT_VEHTYPE" speedFactor="1.06" vaporized=""/>
    <tripinfo id="90" depart="191.00" departLane="666135205#0_0" departPos="5.10" departSpeed="0.00" departDelay="0.41" arrival="312.00" arrivalLane="231177697#0_0" arrivalPos="74.44" arrivalSpeed="13.15" duration="121.00" routeLength="649.17" waitingTime="57.00" waitingCount="2" stopTime="0.00" timeLoss="72.08" rerouteNo="0" devices="tripinfo_90" vType="DEFAULT_VEHTYPE" speedFactor="0.99" vaporized=""/>
    <tripinfo id="44" depart="94.00" departLane="-218680176#1_0" departPos="5.10" departSpeed="0.00" departDelay="0.82" arrival="314.00" arrivalLane="-256961141#1_1" arrivalPos="204.72" arrivalSpeed="13.26" duration="220.00" routeLength="1207.38" waitingTime="118.00" waitingCount="2" stopTime="0.00" timeLoss="139.75" rerouteNo="0" devices="tripinfo_44" vType="DEFAULT_VEHTYPE" speedFactor="1.02" vaporized=""/>
    <tripinfo id="31" depart="66.00" departLane="65746828#0_0" departPos="5.10" departSpeed="0.00" departDelay="0.35" arrival="318.00" arrivalLane="231177697#0_0" arrivalPos="74.44" arrivalSpeed="9.69" duration="252.00" routeLength="558.79" waitingTime="181.00" waitingCount="2" stopTime="0.00" timeLoss="195.01" rerouteNo="0" devices="tripinfo_31" vType="DEFAULT_VEHTYPE" speedFactor="0.74" vaporized=""/>
    <tripinfo id="78" depart="166.00" departLane="-661251539_0" departPos="5.10" departSpeed="0.00" departDelay="0.82" arrival="318.00" arrivalLane="226276377#0_0" arrivalPos="135.52" arrivalSpeed="15.03" duration="152.00" routeLength="783.10" waitingTime="90.00" waitingCount="1" stopTime="0.00" timeLoss="103.62" rerouteNo="0" devices="tripinfo_78" vType="DEFAULT_VEHTYPE" speedFactor="1.14" vaporized=""/>
    <tripinfo id="123" depart="261.00" departLane="-231177697#2_0" departPos="5.10" departSpeed="0.00" departDelay="0.53" arrival="318.00" arrivalLane="210831347#0_0" arrivalPos="149.88" arrivalSpeed="15.78" duration="57.00" routeLength="557.56" waitingTime="8.00" waitingCount="1" stopTime="0.00" timeLoss="21.54" rerouteNo="0" devices="tripinfo_123" vType="DEFAULT_VEHTYPE" speedFactor="1.18" vaporized=""/>
    <tripinfo id="108" depart="229.00" departLane="65746828#0_0" departPos="5.10" departSpeed="0.00" departDelay="0.29" arrival="319.00" arrivalLane="231177697#0_0" arrivalPos="74.44" arrivalSpeed="12.44" duration="90.00" routeLength="558.79" waitingTime="34.00" waitingCount="1" stopTime="0.00" timeLoss="51.97" rerouteNo="0" devices="tripinfo_108" vType="DEFAULT_VEHTYPE" speedFactor="1.09" vaporized=""/>
    <tripinfo id="113" depart="240.00" departLane="256961141#0_0" departPos="5.10" departSpeed="0.00" departDelay="0.71" arrival="319.00" arrivalLane="39907424_0" arrivalPos="316.44" arrivalSpeed="11.86" duration="79.00" routeLength="873.95" waitingTime="0.00" waitingCount="0" stopTime="0.00" timeLoss="9.86" rerouteNo="0" devices="tripinfo_113" vType="DEFAULT_VEHTYPE" speedFactor="0.88" vaporized=""/>
    <tripinfo id="14" depart="30.00" departLane="978867529_0" departPos="5.10" departSpeed="0.00" departDelay="0.35" arrival="321.00" arrivalLane="226276377#0_0" arrivalPos="135.52" arrivalSpeed="13.02" duration="291.00" routeLength="1369.55" waitingTime="171.00" waitingCount="3" stopTime="0.00" timeLoss="203.17" rerouteNo="0" devices="tripinfo_14" vType="DEFAULT_VEHTYPE" speedFactor="1.03" vaporized=""/>
    <tripinfo id="73" depart="155.00" departLane="256961141#0_0" departPos="5.10" departSpeed="0.00" departDelay="0.41" arrival="321.00" arrivalLane="231177697#0_0" arrivalPos="74.44" arrivalSpeed="13.95" duration="166.00" routeLength="1163.55" waitingTime="59.00" waitingCount="3" stopTime="0.00" timeLoss="85.53" rerouteNo="0" devices="tripinfo_73" vType="DEFAULT_VEHTYPE" speedFactor="1.01" vaporized=""/>
    <tripinfo id="19" depart="42.00" departLane="978867529_0" departPos="5.10" departSpeed="0.00" departDelay="1.76" arrival="324.00" arrivalLane="226276377#0_0" arrivalPos="135.52" arrivalSpeed="12.54" duration="282.00" routeLength="1369.55" waitingTime="161.00" waitingCount="3" stopTime="0.00" timeLoss="190.35" rerouteNo="0" devices="tripinfo_19" vType="DEFAULT_VEHTYPE" speedFactor="0.98" vaporized=""/>
    <tripinfo id="28" depart="60.00" departLane="-226276377#1_0" departPos="5.10" departSpeed="0.00" departDelay="0.71" arrival="324.00" arrivalLane="231177697#0_0" arrivalPos="74.44" arrivalSpeed="13.28" duration="264.00" routeLength="1114.63" waitingTime="163.00" waitingCount="2" stopTime="0.00" timeLoss="184.33" rerouteNo="0" devices="tripinfo_28" vType="DEFAULT_VEHTYPE" speedFactor="0.99" vaporized=""/>
    <tripinfo id="18" depart="39.00" departLane="978867529_0" departPos="5.10" departSpeed="0.00" departDelay="0.88" arrival="326.00" arrivalLane="226276377#0_0" arrivalPos="135.52" arrivalSpeed="12.79" duration="287.00" routeLength="1369.55" waitingTime="165.00" waitingCount="3" stopTime="0.00" timeLoss="195.78" rerouteNo="0" devices="tripinfo_18" vType="DEFAULT_VEHTYPE" speedFactor="0.98" vaporized=""/>
    <tripinfo id="42" depart="89.00" departLane="-661251539_0" departPos="5.10" departSpeed="0.00" departDelay="0.06" arrival="326.00" arrivalLane="153964138#0_1" arrivalPos="337.99" arrivalSpeed="19.21" duration="237.00" routeLength="1239.04" waitingTime="137.00" waitingCount="3" stopTime="0.00" timeLoss="163.05" rerouteNo="0" devices="tripinfo_42" vType="DEFAULT_VEHTYPE" speedFactor="1.17" vaporized=""/>
    <tripinfo id="59" depart="125.00" departLane="65746828#0_0" departPos="5.10" departSpeed="0.00" departDelay="0.06" arrival="327.00" arrivalLane="153964138#0_0" arrivalPos="337.99" arrivalSpeed="17.94" duration="202.00" routeLength="834.49" waitingTime="130.00" waitingCount="2" stopTime="0.00" timeLoss="152.02" rerouteNo="0" devices="tripinfo_59" vType="DEFAULT_VEHTYPE" speedFactor="1.14" vaporized=""/>
    <tripinfo id="74" depart="157.00" departLane="-226276377#1_0" departPos="5.10" departSpeed="0.00" departDelay="0.29" arrival="328.00" arrivalLane="210831345#1_0" arrivalPos="264.29" arrivalSpeed="12.41" duration="171.00" routeLength="977.93" waitingTime="80.00" waitingCount="2" stopTime="0.00" timeLoss="96.92" rerouteNo="0" devices="tripinfo_74" vType="DEFAULT_VEHTYPE" speedFactor="0.91" vaporized=""/>
    <tripinfo id="91" depart="193.00" departLane="E8_0" departPos="5.10" departSpeed="0.00" departDelay="0.29" arrival="328.00" arrivalLane="-256961141#1_0" arrivalPos="204.72" arrivalSpeed="12.53" duration="135.00" routeLength="832.89" waitingTime="58.00" waitingCount="1" stopTime="0.00" timeLoss="71.03" rerouteNo="0" devices="tripinfo_91" vType="DEFAULT_VEHTYPE" speedFactor="0.95" vaporized=""/>