<?xml version="1.0" encoding="UTF-8"?>

<!-- generated on 2024-09-03 02:42:19 by Eclipse SUMO sumo Version 1.20.0
<configuration xmlns:xsi="http://www.w3.org/2001/XMLSchema-instance" xsi:noNamespaceSchemaLocation="http://sumo.dlr.de/xsd/sumoConfiguration.xsd">

    <input>
        <net-file value="c:\self\School\Master\Disertation\code\RESCO\resco_benchmark\environments/unirii/osm.net.xml.gz"/>
        <route-files value="c:\self\School\Master\Disertation\code\RESCO\resco_benchmark\environments/unirii/osm.passenger.trips.xml"/>
        <additional-files value="c:\self\School\Master\Disertation\code\RESCO\resco_benchmark\environments/unirii/osm.poly.xml.gz"/>
    </input>

    <output>
        <tripinfo-output value="C:\self\School\Master\Disertation\code\RESCO\results\IA2C-tr0-unirii-0-drq_norm-wait_norm\tripinfo_38.xml"/>
        <tripinfo-output.write-unfinished value="true"/>
    </output>

    <processing>
        <ignore-route-errors value="true"/>
        <time-to-teleport value="-1"/>
    </processing>

    <routing>
        <device.rerouting.adaptation-steps value="18"/>
        <device.rerouting.adaptation-interval value="10"/>
    </routing>

    <report>
        <verbose value="true"/>
        <no-warnings value="True"/>
        <duration-log.statistics value="true"/>
        <no-step-log value="True"/>
    </report>

    <traci_server>
        <remote-port value="52215"/>
    </traci_server>

    <random_number>
        <random value="true"/>
    </random_number>

    <gui_only>
        <gui-settings-file value="c:\self\School\Master\Disertation\code\RESCO\resco_benchmark\environments/unirii/osm.view.xml"/>
    </gui_only>

</configuration>
-->

<tripinfos xmlns:xsi="http://www.w3.org/2001/XMLSchema-instance" xsi:noNamespaceSchemaLocation="http://sumo.dlr.de/xsd/tripinfo_file.xsd">
    <tripinfo id="10" depart="23.00" departLane="978867529_0" departPos="5.10" departSpeed="0.00" departDelay="1.82" arrival="63.00" arrivalLane="231177697#0_1" arrivalPos="74.44" arrivalSpeed="11.99" duration="40.00" routeLength="437.06" waitingTime="0.00" waitingCount="0" stopTime="0.00" timeLoss="8.39" rerouteNo="0" devices="tripinfo_10" vType="DEFAULT_VEHTYPE" speedFactor="0.90" vaporized=""/>
    <tripinfo id="15" depart="33.00" departLane="978867529_0" departPos="5.10" departSpeed="0.00" departDelay="1.24" arrival="66.00" arrivalLane="231177697#0_1" arrivalPos="74.44" arrivalSpeed="14.40" duration="33.00" routeLength="437.06" waitingTime="0.00" waitingCount="0" stopTime="0.00" timeLoss="5.50" rerouteNo="0" devices="tripinfo_15" vType="DEFAULT_VEHTYPE" speedFactor="1.05" vaporized=""/>
    <tripinfo id="16" depart="34.00" departLane="256961141#0_0" departPos="5.10" departSpeed="0.00" departDelay="0.12" arrival="97.00" arrivalLane="450554042#0_0" arrivalPos="622.66" arrivalSpeed="15.00" duration="63.00" routeLength="853.74" waitingTime="0.00" waitingCount="0" stopTime="0.00" timeLoss="6.62" rerouteNo="0" devices="tripinfo_16" vType="DEFAULT_VEHTYPE" speedFactor="0.97" vaporized=""/>
    <tripinfo id="3" depart="7.00" departLane="E8_0" departPos="5.10" departSpeed="0.00" departDelay="0.65" arrival="98.00" arrivalLane="-256961141#1_0" arrivalPos="204.72" arrivalSpeed="13.08" duration="91.00" routeLength="832.89" waitingTime="16.00" waitingCount="1" stopTime="0.00" timeLoss="27.45" rerouteNo="0" devices="tripinfo_3" vType="DEFAULT_VEHTYPE" speedFactor="0.96" vaporized=""/>
    <tripinfo id="2" depart="5.00" departLane="666135205#0_0" departPos="5.10" departSpeed="0.00" departDelay="0.76" arrival="112.00" arrivalLane="231177697#0_0" arrivalPos="74.44" arrivalSpeed="14.29" duration="107.00" routeLength="649.17" waitingTime="49.00" waitingCount="1" stopTime="0.00" timeLoss="63.25" rerouteNo="0" devices="tripinfo_2" vType="DEFAULT_VEHTYPE" speedFactor="1.11" vaporized=""/>
    <tripinfo id="31" depart="66.00" departLane="65746828#0_0" departPos="5.10" departSpeed="0.00" departDelay="0.35" arrival="114.00" arrivalLane="231177697#0_0" arrivalPos="74.44" arrivalSpeed="14.06" duration="48.00" routeLength="558.79" waitingTime="0.00" waitingCount="0" stopTime="0.00" timeLoss="10.10" rerouteNo="0" devices="tripinfo_31" vType="DEFAULT_VEHTYPE" speedFactor="1.10" vaporized=""/>
    <tripinfo id="22" depart="47.00" departLane="-218680176#1_0" departPos="5.10" departSpeed="0.00" departDelay="0.41" arrival="125.00" arrivalLane="210831345#1_1" arrivalPos="264.29" arrivalSpeed="14.92" duration="78.00" routeLength="699.94" waitingTime="17.00" waitingCount="2" stopTime="0.00" timeLoss="33.50" rerouteNo="0" devices="tripinfo_22" vType="DEFAULT_VEHTYPE" speedFactor="1.16" vaporized=""/>
    <tripinfo id="23" depart="50.00" departLane="-218680176#1_0" departPos="5.10" departSpeed="0.00" departDelay="1.29" arrival="130.00" arrivalLane="210831345#1_1" arrivalPos="264.29" arrivalSpeed="13.64" duration="80.00" routeLength="699.94" waitingTime="12.00" waitingCount="2" stopTime="0.00" timeLoss="28.90" rerouteNo="0" devices="tripinfo_23" vType="DEFAULT_VEHTYPE" speedFactor="1.02" vaporized=""/>
    <tripinfo id="12" depart="26.00" departLane="E8_0" departPos="5.10" departSpeed="0.00" departDelay="0.59" arrival="135.00" arrivalLane="210831347#0_1" arrivalPos="149.88" arrivalSpeed="12.74" duration="109.00" routeLength="1367.17" waitingTime="0.00" waitingCount="0" stopTime="0.00" timeLoss="9.99" rerouteNo="0" devices="tripinfo_12" vType="DEFAULT_VEHTYPE" speedFactor="0.96" vaporized=""/>
    <tripinfo id="30" depart="64.00" departLane="E8_0" departPos="5.10" departSpeed="0.00" departDelay="0.47" arrival="143.00" arrivalLane="226276377#0_1" arrivalPos="135.52" arrivalSpeed="12.95" duration="79.00" routeLength="784.51" waitingTime="12.00" waitingCount="1" stopTime="0.00" timeLoss="22.62" rerouteNo="0" devices="tripinfo_30" vType="DEFAULT_VEHTYPE" speedFactor="1.01" vaporized=""/>
    <tripinfo id="35" depart="75.00" departLane="-226276377#1_0" departPos="5.10" departSpeed="0.00" departDelay="0.88" arrival="143.00" arrivalLane="450554042#0_0" arrivalPos="622.66" arrivalSpeed="17.38" duration="68.00" routeLength="763.53" waitingTime="12.00" waitingCount="1" stopTime="0.00" timeLoss="23.58" rerouteNo="0" devices="tripinfo_35" vType="DEFAULT_VEHTYPE" speedFactor="1.09" vaporized=""/>
    <tripinfo id="4" depart="9.00" departLane="-661251539_0" departPos="5.10" departSpeed="0.00" departDelay="0.53" arrival="148.00" arrivalLane="-256961141#1_1" arrivalPos="204.72" arrivalSpeed="13.21" duration="139.00" routeLength="872.91" waitingTime="67.00" waitingCount="1" stopTime="0.00" timeLoss="80.56" rerouteNo="0" devices="tripinfo_4" vType="DEFAULT_VEHTYPE" speedFactor="1.04" vaporized=""/>
    <tripinfo id="0" depart="0.00" departLane="65746828#0_0" departPos="5.10" departSpeed="0.00" departDelay="0.00" arrival="153.00" arrivalLane="-256961141#1_1" arrivalPos="204.72" arrivalSpeed="12.24" duration="153.00" routeLength="931.50" waitingTime="65.00" waitingCount="2" stopTime="0.00" timeLoss="81.69" rerouteNo="0" devices="tripinfo_0" vType="DEFAULT_VEHTYPE" speedFactor="0.88" vaporized=""/>
    <tripinfo id="20" depart="43.00" departLane="666135205#0_0" departPos="5.10" departSpeed="0.00" departDelay="0.65" arrival="154.00" arrivalLane="-256961141#1_1" arrivalPos="204.72" arrivalSpeed="13.50" duration="111.00" routeLength="1068.72" waitingTime="23.00" waitingCount="1" stopTime="0.00" timeLoss="38.39" rerouteNo="0" devices="tripinfo_20" vType="DEFAULT_VEHTYPE" speedFactor="0.99" vaporized=""/>
    <tripinfo id="6" depart="13.00" departLane="-218680176#1_0" departPos="5.10" departSpeed="0.00" departDelay="0.29" arrival="156.00" arrivalLane="153964138#0_2" arrivalPos="337.99" arrivalSpeed="14.90" duration="143.00" routeLength="462.27" waitingTime="101.00" waitingCount="1" stopTime="0.00" timeLoss="110.70" rerouteNo="0" devices="tripinfo_6" vType="DEFAULT_VEHTYPE" speedFactor="0.93" vaporized=""/>
    <tripinfo id="46" depart="98.00" departLane="978867529_0" departPos="5.10" departSpeed="0.00" departDelay="0.59" arrival="164.00" arrivalLane="210831347#0_0" arrivalPos="149.88" arrivalSpeed="12.56" duration="66.00" routeLength="812.56" waitingTime="0.00" waitingCount="0" stopTime="0.00" timeLoss="8.57" rerouteNo="0" devices="tripinfo_46" vType="DEFAULT_VEHTYPE" speedFactor="0.97" vaporized=""/>
    <tripinfo id="50" depart="106.00" departLane="-218680176#1_0" departPos="5.10" departSpeed="0.00" departDelay="0.12" arrival="171.00" arrivalLane="231177697#0_0" arrivalPos="74.44" arrivalSpeed="12.03" duration="65.00" routeLength="205.97" waitingTime="38.00" waitingCount="1" stopTime="0.00" timeLoss="48.72" rerouteNo="0" devices="tripinfo_50" vType="DEFAULT_VEHTYPE" speedFactor="0.96" vaporized=""/>
    <tripinfo id="14" depart="30.00" departLane="978867529_0" departPos="5.10" departSpeed="0.00" departDelay="0.35" arrival="177.00" arrivalLane="226276377#0_0" arrivalPos="135.52" arrivalSpeed="14.66" duration="147.00" routeLength="1369.55" waitingTime="44.00" waitingCount="1" stopTime="0.00" timeLoss="63.55" rerouteNo="0" devices="tripinfo_14" vType="DEFAULT_VEHTYPE" speedFactor="1.08" vaporized=""/>
    <tripinfo id="68" depart="144.00" departLane="-218680176#1_0" departPos="5.10" departSpeed="0.00" departDelay="0.00" arrival="177.00" arrivalLane="231177697#0_0" arrivalPos="74.44" arrivalSpeed="13.28" duration="33.00" routeLength="205.97" waitingTime="3.00" waitingCount="1" stopTime="0.00" timeLoss="18.50" rerouteNo="0" devices="tripinfo_68" vType="DEFAULT_VEHTYPE" speedFactor="1.03" vaporized=""/>
    <tripinfo id="40" depart="85.00" departLane="65746828#0_0" departPos="5.10" departSpeed="0.00" departDelay="0.29" arrival="179.00" arrivalLane="210831345#1_0" arrivalPos="264.29" arrivalSpeed="13.67" duration="94.00" routeLength="446.75" waitingTime="48.00" waitingCount="2" stopTime="0.00" timeLoss="61.01" rerouteNo="0" devices="tripinfo_40" vType="DEFAULT_VEHTYPE" speedFactor="0.99" vaporized=""/>
    <tripinfo id="27" depart="58.00" departLane="65746828#0_0" departPos="5.10" departSpeed="0.00" departDelay="0.82" arrival="182.00" arrivalLane="226276377#0_0" arrivalPos="135.52" arrivalSpeed="11.78" duration="124.00" routeLength="841.69" waitingTime="46.00" waitingCount="1" stopTime="0.00" timeLoss="60.16" rerouteNo="0" devices="tripinfo_27" vType="DEFAULT_VEHTYPE" speedFactor="0.89" vaporized=""/>
    <tripinfo id="18" depart="39.00" departLane="978867529_0" departPos="5.10" departSpeed="0.00" departDelay="0.88" arrival="183.00" arrivalLane="226276377#0_0" arrivalPos="135.52" arrivalSpeed="12.92" duration="144.00" routeLength="1369.55" waitingTime="36.00" waitingCount="1" stopTime="0.00" timeLoss="57.92" rerouteNo="0" devices="tripinfo_18" vType="DEFAULT_VEHTYPE" speedFactor="1.04" vaporized=""/>
    <tripinfo id="19" depart="42.00" departLane="978867529_0" departPos="5.10" departSpeed="0.00" departDelay="1.76" arrival="186.00" arrivalLane="226276377#0_0" arrivalPos="135.52" arrivalSpeed="12.46" duration="144.00" routeLength="1369.55" waitingTime="34.00" waitingCount="1" stopTime="0.00" timeLoss="52.69" rerouteNo="0" devices="tripinfo_19" vType="DEFAULT_VEHTYPE" speedFactor="0.98" vaporized=""/>
    <tripinfo id="32" depart="68.00" departLane="978867529_0" departPos="5.10" departSpeed="0.00" departDelay="0.24" arrival="189.00" arrivalLane="231177697#0_1" arrivalPos="74.44" arrivalSpeed="14.36" duration="121.00" routeLength="437.06" waitingTime="81.00" waitingCount="1" stopTime="0.00" timeLoss="93.07" rerouteNo="0" devices="tripinfo_32" vType="DEFAULT_VEHTYPE" speedFactor="1.05" vaporized=""/>
    <tripinfo id="7" depart="15.00" departLane="65746828#0_0" departPos="5.10" departSpeed="0.00" departDelay="0.18" arrival="190.00" arrivalLane="218680176#0_1" arrivalPos="98.94" arrivalSpeed="14.74" duration="175.00" routeLength="602.71" waitingTime="117.00" waitingCount="2" stopTime="0.00" timeLoss="133.48" rerouteNo="0" devices="tripinfo_7" vType="DEFAULT_VEHTYPE" speedFactor="1.08" vaporized=""/>
    <tripinfo id="17" depart="36.00" departLane="-661251539_0" departPos="5.10" departSpeed="0.00" departDelay="0.00" arrival="193.00" arrivalLane="218680176#0_1" arrivalPos="98.94" arrivalSpeed="11.79" duration="157.00" routeLength="1001.21" waitingTime="58.00" waitingCount="2" stopTime="0.00" timeLoss="76.43" rerouteNo="0" devices="tripinfo_17" vType="DEFAULT_VEHTYPE" speedFactor="0.91" vaporized=""/>
    <tripinfo id="5" depart="11.00" departLane="-226276377#1_0" departPos="5.10" departSpeed="0.00" departDelay="0.41" arrival="195.00" arrivalLane="218680176#0_1" arrivalPos="98.94" arrivalSpeed="12.88" duration="184.00" routeLength="1158.55" waitingTime="72.00" waitingCount="3" stopTime="0.00" timeLoss="97.21" rerouteNo="0" devices="tripinfo_5" vType="DEFAULT_VEHTYPE" speedFactor="0.93" vaporized=""/>
    <tripinfo id="51" depart="108.00" departLane="666135205#0_0" departPos="5.10" departSpeed="0.00" departDelay="0.00" arrival="197.00" arrivalLane="218680176#0_1" arrivalPos="98.94" arrivalSpeed="14.66" duration="89.00" routeLength="693.09" waitingTime="25.00" waitingCount="2" stopTime="0.00" timeLoss="42.37" rerouteNo="0" devices="tripinfo_51" vType="DEFAULT_VEHTYPE" speedFactor="1.12" vaporized=""/>
    <tripinfo id="47" depart="100.00" departLane="-218680176#1_0" departPos="5.10" departSpeed="0.00" departDelay="0.47" arrival="198.00" arrivalLane="210831347#0_0" arrivalPos="149.88" arrivalSpeed="13.14" duration="98.00" routeLength="560.58" waitingTime="42.00" waitingCount="1" stopTime="0.00" timeLoss="54.97" rerouteNo="0" devices="tripinfo_47" vType="DEFAULT_VEHTYPE" speedFactor="0.99" vaporized=""/>
    <tripinfo id="60" depart="128.00" departLane="666135205#0_0" departPos="5.10" departSpeed="0.00" departDelay="0.94" arrival="198.00" arrivalLane="218680176#0_1" arrivalPos="98.94" arrivalSpeed="14.31" duration="70.00" routeLength="693.09" waitingTime="3.00" waitingCount="2" stopTime="0.00" timeLoss="22.88" rerouteNo="0" devices="tripinfo_60" vType="DEFAULT_VEHTYPE" speedFactor="1.09" vaporized=""/>
    <tripinfo id="13" depart="28.00" departLane="-218680176#1_0" departPos="5.10" departSpeed="0.00" departDelay="0.47" arrival="201.00" arrivalLane="-256961141#1_1" arrivalPos="204.72" arrivalSpeed="11.90" duration="173.00" routeLength="1207.38" waitingTime="57.00" waitingCount="3" stopTime="0.00" timeLoss="80.61" rerouteNo="0" devices="tripinfo_13" vType="DEFAULT_VEHTYPE" speedFactor="0.89" vaporized=""/>
    <tripinfo id="9" depart="20.00" departLane="978867529_0" departPos="5.10" departSpeed="0.00" departDelay="0.94" arrival="202.00" arrivalLane="-256961141#1_1" arrivalPos="204.72" arrivalSpeed="12.40" duration="182.00" routeLength="1459.36" waitingTime="56.00" waitingCount="2" stopTime="0.00" timeLoss="77.62" rerouteNo="0" devices="tripinfo_9" vType="DEFAULT_VEHTYPE" speedFactor="0.92" vaporized=""/>
    <tripinfo id="49" depart="105.00" departLane="E8_0" departPos="5.10" departSpeed="0.00" departDelay="1.24" arrival="206.00" arrivalLane="39907424_0" arrivalPos="316.44" arrivalSpeed="14.81" duration="101.00" routeLength="1303.68" waitingTime="2.00" waitingCount="1" stopTime="0.00" timeLoss="21.57" rerouteNo="0" devices="tripinfo_49" vType="DEFAULT_VEHTYPE" speedFactor="1.15" vaporized=""/>
    <tripinfo id="38" depart="81.00" departLane="E8_0" departPos="5.10" departSpeed="0.00" departDelay="0.53" arrival="223.00" arrivalLane="218680176#0_1" arrivalPos="98.94" arrivalSpeed="16.20" duration="142.00" routeLength="1637.20" waitingTime="25.00" waitingCount="1" stopTime="0.00" timeLoss="43.38" rerouteNo="0" devices="tripinfo_38" vType="DEFAULT_VEHTYPE" speedFactor="1.17" vaporized=""/>
    <tripinfo id="79" depart="168.00" departLane="-231177697#2_0" departPos="5.10" departSpeed="0.00" departDelay="0.71" arrival="224.00" arrivalLane="153964138#0_0" arrivalPos="337.99" arrivalSpeed="15.24" duration="56.00" routeLength="417.38" waitingTime="18.00" waitingCount="1" stopTime="0.00" timeLoss="28.00" rerouteNo="0" devices="tripinfo_79" vType="DEFAULT_VEHTYPE" speedFactor="0.95" vaporized=""/>
    <tripinfo id="43" depart="92.00" departLane="E8_0" departPos="5.10" departSpeed="0.00" departDelay="0.94" arrival="228.00" arrivalLane="218680176#0_1" arrivalPos="98.94" arrivalSpeed="13.15" duration="136.00" routeLength="1637.20" waitingTime="9.00" waitingCount="1" stopTime="0.00" timeLoss="22.79" rerouteNo="0" devices="tripinfo_43" vType="DEFAULT_VEHTYPE" speedFactor="1.02" vaporized=""/>
    <tripinfo id="57" depart="121.00" departLane="E8_0" departPos="5.10" departSpeed="0.00" departDelay="0.29" arrival="233.00" arrivalLane="39907424_0" arrivalPos="316.44" arrivalSpeed="13.51" duration="112.00" routeLength="1303.68" waitingTime="6.00" waitingCount="1" stopTime="0.00" timeLoss="21.44" rerouteNo="0" devices="tripinfo_57" vType="DEFAULT_VEHTYPE" speedFactor="1.00" vaporized=""/>
    <tripinfo id="78" depart="166.00" departLane="-661251539_0" departPos="5.10" departSpeed="0.00" departDelay="0.82" arrival="244.00" arrivalLane="226276377#0_0" arrivalPos="135.52" arrivalSpeed="14.32" duration="78.00" routeLength="783.10" waitingTime="13.00" waitingCount="1" stopTime="0.00" timeLoss="26.65" rerouteNo="0" devices="tripinfo_78" vType="DEFAULT_VEHTYPE" speedFactor="1.08" vaporized=""/>
    <tripinfo id="52" depart="111.00" departLane="-231177697#2_0" departPos="5.10" departSpeed="0.00" departDelay="0.88" arrival="246.00" arrivalLane="226276377#0_0" arrivalPos="135.52" arrivalSpeed="14.46" duration="135.00" routeLength="1114.55" waitingTime="26.00" waitingCount="4" stopTime="0.00" timeLoss="63.75" rerouteNo="0" devices="tripinfo_52" vType="DEFAULT_VEHTYPE" speedFactor="1.06" vaporized=""/>
    <tripinfo id="58" depart="123.00" departLane="-231177697#2_0" departPos="5.10" departSpeed="0.00" departDelay="0.18" arrival="251.00" arrivalLane="226276377#0_0" arrivalPos="135.52" arrivalSpeed="12.11" duration="128.00" routeLength="1114.55" waitingTime="16.00" waitingCount="3" stopTime="0.00" timeLoss="42.91" rerouteNo="0" devices="tripinfo_58" vType="DEFAULT_VEHTYPE" speedFactor="0.89" vaporized=""/>
    <tripinfo id="91" depart="193.00" departLane="E8_0" departPos="5.10" departSpeed="0.00" departDelay="0.29" arrival="252.00" arrivalLane="-256961141#1_0" arrivalPos="204.72" arrivalSpeed="15.68" duration="59.00" routeLength="832.89" waitingTime="0.00" waitingCount="0" stopTime="0.00" timeLoss="8.90" rerouteNo="0" devices="tripinfo_91" vType="DEFAULT_VEHTYPE" speedFactor="1.22" vaporized=""/>
    <tripinfo id="45" depart="97.00" departLane="-218680176#1_0" departPos="5.10" departSpeed="0.00" departDelay="1.71" arrival="253.00" arrivalLane="226276377#0_0" arrivalPos="135.52" arrivalSpeed="14.41" duration="156.00" routeLength="1117.57" waitingTime="47.00" waitingCount="2" stopTime="0.00" timeLoss="82.96" rerouteNo="0" devices="tripinfo_45" vType="DEFAULT_VEHTYPE" speedFactor="1.05" vaporized=""/>
    <tripinfo id="86" depart="183.00" departLane="256961141#0_0" departPos="5.10" departSpeed="0.00" departDelay="0.88" arrival="253.00" arrivalLane="39907424_0" arrivalPos="316.44" arrivalSpeed="14.45" duration="70.00" routeLength="873.95" waitingTime="0.00" waitingCount="0" stopTime="0.00" timeLoss="12.15" rerouteNo="0" devices="tripinfo_86" vType="DEFAULT_VEHTYPE" speedFactor="1.06" vaporized=""/>
    <tripinfo id="36" depart="77.00" departLane="978867529_0" departPos="5.10" departSpeed="0.00" departDelay="0.76" arrival="254.00" arrivalLane="210831345#1_1" arrivalPos="264.29" arrivalSpeed="13.00" duration="177.00" routeLength="951.92" waitingTime="92.00" waitingCount="1" stopTime="0.00" timeLoss="107.71" rerouteNo="0" devices="tripinfo_36" vType="DEFAULT_VEHTYPE" speedFactor="0.95" vaporized=""/>
    <tripinfo id="1" depart="3.00" departLane="-231177697#2_0" departPos="5.10" departSpeed="0.00" departDelay="0.88" arrival="256.00" arrivalLane="210831345#1_1" arrivalPos="264.29" arrivalSpeed="13.71" duration="253.00" routeLength="696.92" waitingTime="185.00" waitingCount="2" stopTime="0.00" timeLoss="204.32" rerouteNo="0" devices="tripinfo_1" vType="DEFAULT_VEHTYPE" speedFactor="1.06" vaporized=""/>
    <tripinfo id="21" depart="45.00" departLane="-231177697#2_0" departPos="5.10" departSpeed="0.00" departDelay="0.53" arrival="257.00" arrivalLane="210831345#1_1" arrivalPos="264.29" arrivalSpeed="14.76" duration="212.00" routeLength="696.92" waitingTime="145.00" waitingCount="2" stopTime="0.00" timeLoss="164.54" rerouteNo="0" devices="tripinfo_21" vType="DEFAULT_VEHTYPE" speedFactor="1.08" vaporized=""/>
    <tripinfo id="34" depart="72.00" departLane="-231177697#2_0" departPos="5.10" departSpeed="0.00" departDelay="0.00" arrival="259.00" arrivalLane="210831345#1_0" arrivalPos="264.29" arrivalSpeed="14.36" duration="187.00" routeLength="696.92" waitingTime="115.00" waitingCount="2" stopTime="0.00" timeLoss="140.53" rerouteNo="0" devices="tripinfo_34" vType="DEFAULT_VEHTYPE" speedFactor="1.11" vaporized=""/>
    <tripinfo id="39" depart="83.00" departLane="-231177697#2_0" departPos="5.10" departSpeed="0.00" departDelay="0.41" arrival="261.00" arrivalLane="210831345#1_1" arrivalPos="264.29" arrivalSpeed="13.54" duration="178.00" routeLength="696.92" waitingTime="107.00" waitingCount="2" stopTime="0.00" timeLoss="125.98" rerouteNo="0" devices="tripinfo_39" vType="DEFAULT_VEHTYPE" speedFactor="0.99" vaporized=""/>
    <tripinfo id="62" depart="132.00" departLane="-218680176#1_0" departPos="5.10" departSpeed="0.00" departDelay="0.71" arrival="264.00" arrivalLane="210831345#1_1" arrivalPos="264.29" arrivalSpeed="12.82" duration="132.00" routeLength="699.94" waitingTime="59.00" waitingCount="2" stopTime="0.00" timeLoss="77.04" rerouteNo="0" devices="tripinfo_62" vType="DEFAULT_VEHTYPE" speedFactor="0.95" vaporized=""/>
    <tripinfo id="61" depart="130.00" departLane="978867529_0" departPos="5.10" departSpeed="0.00" departDelay="0.82" arrival="266.00" arrivalLane="218680176#0_0" arrivalPos="98.94" arrivalSpeed="9.73" duration="136.00" routeLength="442.15" waitingTime="90.00" waitingCount="1" stopTime="0.00" timeLoss="98.92" rerouteNo="0" devices="tripinfo_61" vType="DEFAULT_VEHTYPE" speedFactor="0.79" vaporized=""/>
    <tripinfo id="75" depart="159.00" departLane="E8_0" departPos="5.10" departSpeed="0.00" departDelay="0.18" arrival="269.00" arrivalLane="226276377#0_1" arrivalPos="135.52" arrivalSpeed="12.48" duration="110.00" routeLength="784.51" waitingTime="34.00" waitingCount="1" stopTime="0.00" timeLoss="46.16" rerouteNo="0" devices="tripinfo_75" vType="DEFAULT_VEHTYPE" speedFactor="0.90" vaporized=""/>
    <tripinfo id="63" depart="135.00" departLane="-218680176#1_0" departPos="5.10" departSpeed="0.00" departDelay="1.59" arrival="270.00" arrivalLane="450554042#0_0" arrivalPos="622.66" arrivalSpeed="16.66" duration="135.00" routeLength="1616.60" waitingTime="11.00" waitingCount="1" stopTime="0.00" timeLoss="35.91" rerouteNo="0" devices="tripinfo_63" vType="DEFAULT_VEHTYPE" speedFactor="1.04" vaporized=""/>
    <tripinfo id="85" depart="180.00" departLane="E8_0" departPos="5.10" departSpeed="0.00" departDelay="0.00" arrival="273.00" arrivalLane="226276377#0_1" arrivalPos="135.52" arrivalSpeed="10.30" duration="93.00" routeLength="784.51" waitingTime="9.00" waitingCount="1" stopTime="0.00" timeLoss="21.36" rerouteNo="0" devices="tripinfo_85" vType="DEFAULT_VEHTYPE" speedFactor="0.80" vaporized=""/>
    <tripinfo id="33" depart="70.00" departLane="-231177697#2_0" departPos="5.10" departSpeed="0.00" departDelay="0.12" arrival="274.00" arrivalLane="-256961141#1_1" arrivalPos="204.72" arrivalSpeed="11.79" duration="204.00" routeLength="1204.36" waitingTime="90.00" waitingCount="3" stopTime="0.00" timeLoss="116.94" rerouteNo="0" devices="tripinfo_33" vType="DEFAULT_VEHTYPE" speedFactor="0.94" vaporized=""/>
    <tripinfo id="11" depart="24.00" departLane="-661251539_0" departPos="5.10" departSpeed="0.00" departDelay="0.71" arrival="275.00" arrivalLane="153964138#0_0" arrivalPos="337.99" arrivalSpeed="20.20" duration="251.00" routeLength="1239.04" waitingTime="158.00" waitingCount="2" stopTime="0.00" timeLoss="180.60" rerouteNo="0" devices="tripinfo_11" vType="DEFAULT_VEHTYPE" speedFactor="1.21" vaporized=""/>
    <tripinfo id="26" depart="56.00" departLane="-231177697#2_0" departPos="5.10" departSpeed="0.00" departDelay="0.94" arrival="276.00" arrivalLane="450554042#0_0" arrivalPos="622.66" arrivalSpeed="14.09" duration="220.00" routeLength="1613.58" waitingTime="80.00" waitingCount="3" stopTime="0.00" timeLoss="105.20" rerouteNo="0" devices="tripinfo_26" vType="DEFAULT_VEHTYPE" speedFactor="0.90" vaporized=""/>
    <tripinfo id="44" depart="94.00" departLane="-218680176#1_0" departPos="5.10" departSpeed="0.00" departDelay="0.82" arrival="276.00" arrivalLane="-256961141#1_1" arrivalPos="204.72" arrivalSpeed="12.69" duration="182.00" routeLength="1207.38" waitingTime="71.00" waitingCount="2" stopTime="0.00" timeLoss="97.35" rerouteNo="0" devices="tripinfo_44" vType="DEFAULT_VEHTYPE" speedFactor="0.97" vaporized=""/>
    <tripinfo id="69" depart="147.00" departLane="666135205#0_0" departPos="5.10" departSpeed="0.00" departDelay="0.88" arrival="276.00" arrivalLane="153964138#0_1" arrivalPos="337.99" arrivalSpeed="18.61" duration="129.00" routeLength="924.87" waitingTime="58.00" waitingCount="1" stopTime="0.00" timeLoss="74.37" rerouteNo="0" devices="tripinfo_69" vType="DEFAULT_VEHTYPE" speedFactor="1.16" vaporized=""/>
    <tripinfo id="59" depart="125.00" departLane="65746828#0_0" departPos="5.10" departSpeed="0.00" departDelay="0.06" arrival="280.00" arrivalLane="153964138#0_2" arrivalPos="337.99" arrivalSpeed="16.00" duration="155.00" routeLength="834.49" waitingTime="81.00" waitingCount="2" stopTime="0.00" timeLoss="99.06" rerouteNo="0" devices="tripinfo_59" vType="DEFAULT_VEHTYPE" speedFactor="1.00" vaporized=""/>
    <tripinfo id="90" depart="191.00" departLane="666135205#0_0" departPos="5.10" departSpeed="0.00" departDelay="0.41" arrival="280.00" arrivalLane="231177697#0_0" arrivalPos="74.44" arrivalSpeed="15.20" duration="89.00" routeLength="649.17" waitingTime="32.00" waitingCount="1" stopTime="0.00" timeLoss="45.10" rerouteNo="0" devices="tripinfo_90" vType="DEFAULT_VEHTYPE" speedFactor="1.10" vaporized=""/>
    <tripinfo id="56" depart="119.00" departLane="256961141#0_0" departPos="5.10" departSpeed="0.00" departDelay="0.41" arrival="282.00" arrivalLane="153964138#0_2" arrivalPos="337.99" arrivalSpeed="16.76" duration="163.00" routeLength="1439.25" waitingTime="48.00" waitingCount="2" stopTime="0.00" timeLoss="71.53" rerouteNo="0" devices="tripinfo_56" vType="DEFAULT_VEHTYPE" speedFactor="1.05" vaporized=""/>
    <tripinfo id="25" depart="53.00" departLane="-661251539_0" departPos="5.10" departSpeed="0.00" departDelay="0.06" arrival="284.00" arrivalLane="153964138#0_0" arrivalPos="337.99" arrivalSpeed="13.20" duration="231.00" routeLength="1239.04" waitingTime="104.00" waitingCount="2" stopTime="0.00" timeLoss="124.28" rerouteNo="0" devices="tripinfo_25" vType="DEFAULT_VEHTYPE" speedFactor="0.80" vaporized=""/>
    <tripinfo id="103" depart="219.00" departLane="-661251539_0" departPos="5.10" departSpeed="0.00" departDelay="0.88" arrival="284.00" arrivalLane="-256961141#1_1" arrivalPos="204.72" arrivalSpeed="13.60" duration="65.00" routeLength="872.91" waitingTime="0.00" waitingCount="0" stopTime="0.00" timeLoss="7.47" rerouteNo="0" devices="tripinfo_103" vType="DEFAULT_VEHTYPE" speedFactor="1.06" vaporized=""/>
    <tripinfo id="41" depart="88.00" departLane="65746828#0_0" departPos="5.10" departSpeed="0.00" departDelay="1.18" arrival="286.00" arrivalLane="450554042#0_0" arrivalPos="622.66" arrivalSpeed="12.06" duration="198.00" routeLength="1340.72" waitingTime="61.00" waitingCount="3" stopTime="0.00" timeLoss="82.95" rerouteNo="0" devices="tripinfo_41" vType="DEFAULT_VEHTYPE" speedFactor="0.73" vaporized=""/>
    <tripinfo id="42" depart="89.00" departLane="-661251539_0" departPos="5.10" departSpeed="0.00" departDelay="0.06" arrival="286.00" arrivalLane="153964138#0_0" arrivalPos="337.99" arrivalSpeed="13.03" duration="197.00" routeLength="1239.04" waitingTime="74.00" waitingCount="1" stopTime="0.00" timeLoss="87.63" rerouteNo="0" devices="tripinfo_42" vType="DEFAULT_VEHTYPE" speedFactor="0.78" vaporized=""/>
    <tripinfo id="108" depart="229.00" departLane="65746828#0_0" departPos="5.10" departSpeed="0.00" departDelay="0.29" arrival="290.00" arrivalLane="231177697#0_0" arrivalPos="74.44" arrivalSpeed="13.27" duration="61.00" routeLength="558.79" waitingTime="8.00" waitingCount="1" stopTime="0.00" timeLoss="18.60" rerouteNo="0" devices="tripinfo_108" vType="DEFAULT_VEHTYPE" speedFactor="0.98" vaporized=""/>
    <tripinfo id="116" depart="246.00" departLane="65746828#0_0" departPos="5.10" departSpeed="0.00" departDelay="0.35" arrival="292.00" arrivalLane="231177697#0_0" arrivalPos="74.44" arrivalSpeed="14.41" duration="46.00" routeLength="558.79" waitingTime="0.00" waitingCount="0" stopTime="0.00" timeLoss="8.42" rerouteNo="0" devices="tripinfo_116" vType="DEFAULT_VEHTYPE" speedFactor="1.12" vaporized=""/>
    <tripinfo id="92" depart="195.00" departLane="-661251539_0" departPos="5.10" departSpeed="0.00" departDelay="0.18" arrival="294.00" arrivalLane="210831347#0_1" arrivalPos="149.88" arrivalSpeed="12.94" duration="99.00" routeLength="731.18" waitingTime="30.00" waitingCount="2" stopTime="0.00" timeLoss="45.47" rerouteNo="0" devices="tripinfo_92" vType="DEFAULT_VEHTYPE" speedFactor="1.00" vaporized=""/>
    <tripinfo id="55" depart="117.00" departLane="978867529_0" departPos="5.10" departSpeed="0.00" departDelay="0.53" arrival="299.00" arrivalLane="210831345#1_1" arrivalPos="264.29" arrivalSpeed="15.14" duration="182.00" routeLength="951.92" waitingTime="110.00" waitingCount="1" stopTime="0.00" timeLoss="123.56" rerouteNo="0" devices="tripinfo_55" vType="DEFAULT_VEHTYPE" speedFactor="1.13" vaporized=""/>