<?xml version="1.0" encoding="UTF-8"?>

<!-- generated on 2024-09-03 02:47:21 by Eclipse SUMO sumo Version 1.20.0
<configuration xmlns:xsi="http://www.w3.org/2001/XMLSchema-instance" xsi:noNamespaceSchemaLocation="http://sumo.dlr.de/xsd/sumoConfiguration.xsd">

    <input>
        <net-file value="c:\self\School\Master\Disertation\code\RESCO\resco_benchmark\environments/unirii/osm.net.xml.gz"/>
        <route-files value="c:\self\School\Master\Disertation\code\RESCO\resco_benchmark\environments/unirii/osm.passenger.trips.xml"/>
        <additional-files value="c:\self\School\Master\Disertation\code\RESCO\resco_benchmark\environments/unirii/osm.poly.xml.gz"/>
    </input>

    <output>
        <tripinfo-output value="C:\self\School\Master\Disertation\code\RESCO\results\IA2C-tr0-unirii-0-drq_norm-wait_norm\tripinfo_58.xml"/>
        <tripinfo-output.write-unfinished value="true"/>
    </output>

    <processing>
        <ignore-route-errors value="true"/>
        <time-to-teleport value="-1"/>
    </processing>

    <routing>
        <device.rerouting.adaptation-steps value="18"/>
        <device.rerouting.adaptation-interval value="10"/>
    </routing>

    <report>
        <verbose value="true"/>
        <no-warnings value="True"/>
        <duration-log.statistics value="true"/>
        <no-step-log value="True"/>
    </report>

    <traci_server>
        <remote-port value="52403"/>
    </traci_server>

    <random_number>
        <random value="true"/>
    </random_number>

    <gui_only>
        <gui-settings-file value="c:\self\School\Master\Disertation\code\RESCO\resco_benchmark\environments/unirii/osm.view.xml"/>
    </gui_only>

</configuration>
-->

<tripinfos xmlns:xsi="http://www.w3.org/2001/XMLSchema-instance" xsi:noNamespaceSchemaLocation="http://sumo.dlr.de/xsd/tripinfo_file.xsd">
    <tripinfo id="4" depart="9.00" departLane="-661251539_0" departPos="5.10" departSpeed="0.00" departDelay="0.53" arrival="80.00" arrivalLane="-256961141#1_1" arrivalPos="204.72" arrivalSpeed="13.36" duration="71.00" routeLength="872.91" waitingTime="0.00" waitingCount="0" stopTime="0.00" timeLoss="8.90" rerouteNo="0" devices="tripinfo_4" vType="DEFAULT_VEHTYPE" speedFactor="0.98" vaporized=""/>
    <tripinfo id="2" depart="5.00" departLane="666135205#0_0" departPos="5.10" departSpeed="0.00" departDelay="0.76" arrival="88.00" arrivalLane="231177697#0_0" arrivalPos="74.44" arrivalSpeed="13.57" duration="83.00" routeLength="649.17" waitingTime="17.00" waitingCount="2" stopTime="0.00" timeLoss="32.98" rerouteNo="0" devices="tripinfo_2" vType="DEFAULT_VEHTYPE" speedFactor="0.98" vaporized=""/>
    <tripinfo id="3" depart="7.00" departLane="E8_0" departPos="5.10" departSpeed="0.00" departDelay="0.65" arrival="97.00" arrivalLane="-256961141#1_0" arrivalPos="204.72" arrivalSpeed="13.61" duration="90.00" routeLength="832.89" waitingTime="18.00" waitingCount="1" stopTime="0.00" timeLoss="30.45" rerouteNo="0" devices="tripinfo_3" vType="DEFAULT_VEHTYPE" speedFactor="1.03" vaporized=""/>
    <tripinfo id="10" depart="23.00" departLane="978867529_0" departPos="5.10" departSpeed="0.00" departDelay="1.82" arrival="113.00" arrivalLane="231177697#0_1" arrivalPos="74.44" arrivalSpeed="14.23" duration="90.00" routeLength="437.06" waitingTime="52.00" waitingCount="1" stopTime="0.00" timeLoss="62.28" rerouteNo="0" devices="tripinfo_10" vType="DEFAULT_VEHTYPE" speedFactor="1.03" vaporized=""/>
    <tripinfo id="15" depart="33.00" departLane="978867529_0" departPos="5.10" departSpeed="0.00" departDelay="1.24" arrival="115.00" arrivalLane="231177697#0_1" arrivalPos="74.44" arrivalSpeed="13.35" duration="82.00" routeLength="437.06" waitingTime="44.00" waitingCount="1" stopTime="0.00" timeLoss="54.37" rerouteNo="0" devices="tripinfo_15" vType="DEFAULT_VEHTYPE" speedFactor="1.03" vaporized=""/>
    <tripinfo id="32" depart="68.00" departLane="978867529_0" departPos="5.10" departSpeed="0.00" departDelay="0.24" arrival="117.00" arrivalLane="231177697#0_1" arrivalPos="74.44" arrivalSpeed="13.10" duration="49.00" routeLength="437.06" waitingTime="9.00" waitingCount="1" stopTime="0.00" timeLoss="21.24" rerouteNo="0" devices="tripinfo_32" vType="DEFAULT_VEHTYPE" speedFactor="1.02" vaporized=""/>
    <tripinfo id="40" depart="85.00" departLane="65746828#0_0" departPos="5.10" departSpeed="0.00" departDelay="0.29" arrival="124.00" arrivalLane="210831345#1_0" arrivalPos="264.29" arrivalSpeed="12.02" duration="39.00" routeLength="446.75" waitingTime="0.00" waitingCount="0" stopTime="0.00" timeLoss="4.36" rerouteNo="0" devices="tripinfo_40" vType="DEFAULT_VEHTYPE" speedFactor="0.95" vaporized=""/>
    <tripinfo id="27" depart="58.00" departLane="65746828#0_0" departPos="5.10" departSpeed="0.00" departDelay="0.82" arrival="127.00" arrivalLane="226276377#0_0" arrivalPos="135.52" arrivalSpeed="12.22" duration="69.00" routeLength="841.69" waitingTime="0.00" waitingCount="0" stopTime="0.00" timeLoss="9.77" rerouteNo="0" devices="tripinfo_27" vType="DEFAULT_VEHTYPE" speedFactor="0.95" vaporized=""/>
    <tripinfo id="30" depart="64.00" departLane="E8_0" departPos="5.10" departSpeed="0.00" departDelay="0.47" arrival="144.00" arrivalLane="226276377#0_1" arrivalPos="135.52" arrivalSpeed="12.44" duration="80.00" routeLength="784.51" waitingTime="10.00" waitingCount="1" stopTime="0.00" timeLoss="21.51" rerouteNo="0" devices="tripinfo_30" vType="DEFAULT_VEHTYPE" speedFactor="0.99" vaporized=""/>
    <tripinfo id="0" depart="0.00" departLane="65746828#0_0" departPos="5.10" departSpeed="0.00" departDelay="0.00" arrival="148.00" arrivalLane="-256961141#1_1" arrivalPos="204.72" arrivalSpeed="13.65" duration="148.00" routeLength="931.50" waitingTime="71.00" waitingCount="2" stopTime="0.00" timeLoss="88.10" rerouteNo="0" devices="tripinfo_0" vType="DEFAULT_VEHTYPE" speedFactor="1.05" vaporized=""/>
    <tripinfo id="6" depart="13.00" departLane="-218680176#1_0" departPos="5.10" departSpeed="0.00" departDelay="0.29" arrival="155.00" arrivalLane="153964138#0_2" arrivalPos="337.99" arrivalSpeed="15.59" duration="142.00" routeLength="462.27" waitingTime="102.00" waitingCount="1" stopTime="0.00" timeLoss="111.94" rerouteNo="0" devices="tripinfo_6" vType="DEFAULT_VEHTYPE" speedFactor="1.00" vaporized=""/>
    <tripinfo id="35" depart="75.00" departLane="-226276377#1_0" departPos="5.10" departSpeed="0.00" departDelay="0.88" arrival="188.00" arrivalLane="450554042#0_0" arrivalPos="622.66" arrivalSpeed="17.14" duration="113.00" routeLength="763.53" waitingTime="57.00" waitingCount="1" stopTime="0.00" timeLoss="68.19" rerouteNo="0" devices="tripinfo_35" vType="DEFAULT_VEHTYPE" speedFactor="1.08" vaporized=""/>
    <tripinfo id="7" depart="15.00" departLane="65746828#0_0" departPos="5.10" departSpeed="0.00" departDelay="0.18" arrival="191.00" arrivalLane="218680176#0_1" arrivalPos="98.94" arrivalSpeed="12.15" duration="176.00" routeLength="602.71" waitingTime="112.00" waitingCount="2" stopTime="0.00" timeLoss="126.14" rerouteNo="0" devices="tripinfo_7" vType="DEFAULT_VEHTYPE" speedFactor="0.89" vaporized=""/>
    <tripinfo id="17" depart="36.00" departLane="-661251539_0" departPos="5.10" departSpeed="0.00" departDelay="0.00" arrival="193.00" arrivalLane="218680176#0_1" arrivalPos="98.94" arrivalSpeed="12.81" duration="157.00" routeLength="1001.21" waitingTime="65.00" waitingCount="2" stopTime="0.00" timeLoss="81.05" rerouteNo="0" devices="tripinfo_17" vType="DEFAULT_VEHTYPE" speedFactor="0.97" vaporized=""/>
    <tripinfo id="51" depart="108.00" departLane="666135205#0_0" departPos="5.10" departSpeed="0.00" departDelay="0.00" arrival="213.00" arrivalLane="218680176#0_1" arrivalPos="98.94" arrivalSpeed="14.88" duration="105.00" routeLength="693.09" waitingTime="46.00" waitingCount="1" stopTime="0.00" timeLoss="60.39" rerouteNo="0" devices="tripinfo_51" vType="DEFAULT_VEHTYPE" speedFactor="1.14" vaporized=""/>
    <tripinfo id="16" depart="34.00" departLane="256961141#0_0" departPos="5.10" departSpeed="0.00" departDelay="0.12" arrival="216.00" arrivalLane="450554042#0_1" arrivalPos="622.66" arrivalSpeed="19.49" duration="182.00" routeLength="853.74" waitingTime="123.00" waitingCount="1" stopTime="0.00" timeLoss="135.66" rerouteNo="0" devices="tripinfo_16" vType="DEFAULT_VEHTYPE" speedFactor="1.17" vaporized=""/>
    <tripinfo id="14" depart="30.00" departLane="978867529_0" departPos="5.10" departSpeed="0.00" departDelay="0.35" arrival="218.00" arrivalLane="226276377#0_0" arrivalPos="135.52" arrivalSpeed="15.15" duration="188.00" routeLength="1369.55" waitingTime="79.00" waitingCount="3" stopTime="0.00" timeLoss="107.79" rerouteNo="0" devices="tripinfo_14" vType="DEFAULT_VEHTYPE" speedFactor="1.12" vaporized=""/>
    <tripinfo id="60" depart="128.00" departLane="666135205#0_0" departPos="5.10" departSpeed="0.00" departDelay="0.94" arrival="220.00" arrivalLane="218680176#0_1" arrivalPos="98.94" arrivalSpeed="11.84" duration="92.00" routeLength="693.09" waitingTime="23.00" waitingCount="1" stopTime="0.00" timeLoss="36.06" rerouteNo="0" devices="tripinfo_60" vType="DEFAULT_VEHTYPE" speedFactor="0.92" vaporized=""/>
    <tripinfo id="12" depart="26.00" departLane="E8_0" departPos="5.10" departSpeed="0.00" departDelay="0.59" arrival="221.00" arrivalLane="210831347#0_1" arrivalPos="149.88" arrivalSpeed="12.93" duration="195.00" routeLength="1367.17" waitingTime="79.00" waitingCount="1" stopTime="0.00" timeLoss="93.59" rerouteNo="0" devices="tripinfo_12" vType="DEFAULT_VEHTYPE" speedFactor="0.94" vaporized=""/>
    <tripinfo id="19" depart="42.00" departLane="978867529_0" departPos="5.10" departSpeed="0.00" departDelay="1.76" arrival="223.00" arrivalLane="226276377#0_0" arrivalPos="135.52" arrivalSpeed="12.91" duration="181.00" routeLength="1369.55" waitingTime="59.00" waitingCount="3" stopTime="0.00" timeLoss="86.92" rerouteNo="0" devices="tripinfo_19" vType="DEFAULT_VEHTYPE" speedFactor="0.96" vaporized=""/>
    <tripinfo id="79" depart="168.00" departLane="-231177697#2_0" departPos="5.10" departSpeed="0.00" departDelay="0.71" arrival="223.00" arrivalLane="153964138#0_0" arrivalPos="337.99" arrivalSpeed="16.35" duration="55.00" routeLength="417.38" waitingTime="18.00" waitingCount="1" stopTime="0.00" timeLoss="28.34" rerouteNo="0" devices="tripinfo_79" vType="DEFAULT_VEHTYPE" speedFactor="1.03" vaporized=""/>
    <tripinfo id="18" depart="39.00" departLane="978867529_0" departPos="5.10" departSpeed="0.00" departDelay="0.88" arrival="225.00" arrivalLane="226276377#0_0" arrivalPos="135.52" arrivalSpeed="12.22" duration="186.00" routeLength="1369.55" waitingTime="60.00" waitingCount="3" stopTime="0.00" timeLoss="93.35" rerouteNo="0" devices="tripinfo_18" vType="DEFAULT_VEHTYPE" speedFactor="0.97" vaporized=""/>
    <tripinfo id="52" depart="111.00" departLane="-231177697#2_0" departPos="5.10" departSpeed="0.00" departDelay="0.88" arrival="226.00" arrivalLane="226276377#0_0" arrivalPos="135.52" arrivalSpeed="16.01" duration="115.00" routeLength="1114.55" waitingTime="21.00" waitingCount="2" stopTime="0.00" timeLoss="50.19" rerouteNo="0" devices="tripinfo_52" vType="DEFAULT_VEHTYPE" speedFactor="1.16" vaporized=""/>
    <tripinfo id="54" depart="115.00" departLane="256961141#0_0" departPos="5.10" departSpeed="0.00" departDelay="0.65" arrival="226.00" arrivalLane="450554042#0_0" arrivalPos="622.66" arrivalSpeed="15.64" duration="111.00" routeLength="853.74" waitingTime="43.00" waitingCount="1" stopTime="0.00" timeLoss="53.79" rerouteNo="0" devices="tripinfo_54" vType="DEFAULT_VEHTYPE" speedFactor="0.96" vaporized=""/>
    <tripinfo id="22" depart="47.00" departLane="-218680176#1_0" departPos="5.10" departSpeed="0.00" departDelay="0.41" arrival="229.00" arrivalLane="210831345#1_1" arrivalPos="264.29" arrivalSpeed="12.61" duration="182.00" routeLength="699.94" waitingTime="117.00" waitingCount="1" stopTime="0.00" timeLoss="128.89" rerouteNo="0" devices="tripinfo_22" vType="DEFAULT_VEHTYPE" speedFactor="0.97" vaporized=""/>
    <tripinfo id="58" depart="123.00" departLane="-231177697#2_0" departPos="5.10" departSpeed="0.00" departDelay="0.18" arrival="230.00" arrivalLane="226276377#0_0" arrivalPos="135.52" arrivalSpeed="11.25" duration="107.00" routeLength="1114.55" waitingTime="5.00" waitingCount="1" stopTime="0.00" timeLoss="23.88" rerouteNo="0" devices="tripinfo_58" vType="DEFAULT_VEHTYPE" speedFactor="0.90" vaporized=""/>
    <tripinfo id="23" depart="50.00" departLane="-218680176#1_0" departPos="5.10" departSpeed="0.00" departDelay="1.29" arrival="231.00" arrivalLane="210831345#1_0" arrivalPos="264.29" arrivalSpeed="14.83" duration="181.00" routeLength="699.94" waitingTime="116.00" waitingCount="1" stopTime="0.00" timeLoss="134.35" rerouteNo="0" devices="tripinfo_23" vType="DEFAULT_VEHTYPE" speedFactor="1.12" vaporized=""/>
    <tripinfo id="1" depart="3.00" departLane="-231177697#2_0" departPos="5.10" departSpeed="0.00" departDelay="0.88" arrival="233.00" arrivalLane="210831345#1_1" arrivalPos="264.29" arrivalSpeed="13.53" duration="230.00" routeLength="696.92" waitingTime="160.00" waitingCount="2" stopTime="0.00" timeLoss="178.62" rerouteNo="0" devices="tripinfo_1" vType="DEFAULT_VEHTYPE" speedFactor="1.00" vaporized=""/>
    <tripinfo id="29" depart="63.00" departLane="-226276377#1_0" departPos="5.10" departSpeed="0.00" departDelay="1.59" arrival="234.00" arrivalLane="210831347#0_1" arrivalPos="149.88" arrivalSpeed="14.35" duration="171.00" routeLength="888.52" waitingTime="101.00" waitingCount="1" stopTime="0.00" timeLoss="116.53" rerouteNo="0" devices="tripinfo_29" vType="DEFAULT_VEHTYPE" speedFactor="1.13" vaporized=""/>
    <tripinfo id="21" depart="45.00" departLane="-231177697#2_0" departPos="5.10" departSpeed="0.00" departDelay="0.53" arrival="237.00" arrivalLane="210831345#1_0" arrivalPos="264.29" arrivalSpeed="12.32" duration="192.00" routeLength="696.92" waitingTime="118.00" waitingCount="2" stopTime="0.00" timeLoss="136.79" rerouteNo="0" devices="tripinfo_21" vType="DEFAULT_VEHTYPE" speedFactor="0.93" vaporized=""/>
    <tripinfo id="34" depart="72.00" departLane="-231177697#2_0" departPos="5.10" departSpeed="0.00" departDelay="0.00" arrival="239.00" arrivalLane="210831345#1_1" arrivalPos="264.29" arrivalSpeed="12.58" duration="167.00" routeLength="696.92" waitingTime="90.00" waitingCount="2" stopTime="0.00" timeLoss="112.32" rerouteNo="0" devices="tripinfo_34" vType="DEFAULT_VEHTYPE" speedFactor="0.95" vaporized=""/>
    <tripinfo id="39" depart="83.00" departLane="-231177697#2_0" departPos="5.10" departSpeed="0.00" departDelay="0.41" arrival="243.00" arrivalLane="210831345#1_0" arrivalPos="264.29" arrivalSpeed="11.25" duration="160.00" routeLength="696.92" waitingTime="78.00" waitingCount="2" stopTime="0.00" timeLoss="99.40" rerouteNo="0" devices="tripinfo_39" vType="DEFAULT_VEHTYPE" speedFactor="0.84" vaporized=""/>
    <tripinfo id="75" depart="159.00" departLane="E8_0" departPos="5.10" departSpeed="0.00" departDelay="0.18" arrival="244.00" arrivalLane="226276377#0_1" arrivalPos="135.52" arrivalSpeed="12.46" duration="85.00" routeLength="784.51" waitingTime="12.00" waitingCount="1" stopTime="0.00" timeLoss="24.54" rerouteNo="0" devices="tripinfo_75" vType="DEFAULT_VEHTYPE" speedFactor="0.95" vaporized=""/>
    <tripinfo id="20" depart="43.00" departLane="666135205#0_0" departPos="5.10" departSpeed="0.00" departDelay="0.65" arrival="246.00" arrivalLane="-256961141#1_1" arrivalPos="204.72" arrivalSpeed="15.05" duration="203.00" routeLength="1068.72" waitingTime="122.00" waitingCount="2" stopTime="0.00" timeLoss="141.34" rerouteNo="0" devices="tripinfo_20" vType="DEFAULT_VEHTYPE" speedFactor="1.17" vaporized=""/>
    <tripinfo id="26" depart="56.00" departLane="-231177697#2_0" departPos="5.10" departSpeed="0.00" departDelay="0.94" arrival="246.00" arrivalLane="450554042#0_0" arrivalPos="622.66" arrivalSpeed="15.84" duration="190.00" routeLength="1613.58" waitingTime="64.00" waitingCount="1" stopTime="0.00" timeLoss="88.35" rerouteNo="0" devices="tripinfo_26" vType="DEFAULT_VEHTYPE" speedFactor="1.01" vaporized=""/>
    <tripinfo id="9" depart="20.00" departLane="978867529_0" departPos="5.10" departSpeed="0.00" departDelay="0.94" arrival="247.00" arrivalLane="-256961141#1_1" arrivalPos="204.72" arrivalSpeed="16.30" duration="227.00" routeLength="1459.36" waitingTime="125.00" waitingCount="2" stopTime="0.00" timeLoss="147.81" rerouteNo="0" devices="tripinfo_9" vType="DEFAULT_VEHTYPE" speedFactor="1.21" vaporized=""/>
    <tripinfo id="41" depart="88.00" departLane="65746828#0_0" departPos="5.10" departSpeed="0.00" departDelay="1.18" arrival="248.00" arrivalLane="450554042#0_0" arrivalPos="622.66" arrivalSpeed="15.21" duration="160.00" routeLength="1340.72" waitingTime="56.00" waitingCount="1" stopTime="0.00" timeLoss="72.07" rerouteNo="0" devices="tripinfo_41" vType="DEFAULT_VEHTYPE" speedFactor="0.95" vaporized=""/>
    <tripinfo id="85" depart="180.00" departLane="E8_0" departPos="5.10" departSpeed="0.00" departDelay="0.00" arrival="248.00" arrivalLane="226276377#0_1" arrivalPos="135.52" arrivalSpeed="12.93" duration="68.00" routeLength="784.51" waitingTime="0.00" waitingCount="0" stopTime="0.00" timeLoss="6.21" rerouteNo="0" devices="tripinfo_85" vType="DEFAULT_VEHTYPE" speedFactor="0.93" vaporized=""/>
    <tripinfo id="13" depart="28.00" departLane="-218680176#1_0" departPos="5.10" departSpeed="0.00" departDelay="0.47" arrival="250.00" arrivalLane="-256961141#1_1" arrivalPos="204.72" arrivalSpeed="15.53" duration="222.00" routeLength="1207.38" waitingTime="120.00" waitingCount="4" stopTime="0.00" timeLoss="150.48" rerouteNo="0" devices="tripinfo_13" vType="DEFAULT_VEHTYPE" speedFactor="1.15" vaporized=""/>
    <tripinfo id="44" depart="94.00" departLane="-218680176#1_0" departPos="5.10" departSpeed="0.00" departDelay="0.82" arrival="253.00" arrivalLane="-256961141#1_1" arrivalPos="204.72" arrivalSpeed="13.48" duration="159.00" routeLength="1207.38" waitingTime="52.00" waitingCount="3" stopTime="0.00" timeLoss="81.04" rerouteNo="0" devices="tripinfo_44" vType="DEFAULT_VEHTYPE" speedFactor="1.05" vaporized=""/>
    <tripinfo id="49" depart="105.00" departLane="E8_0" departPos="5.10" departSpeed="0.00" departDelay="1.24" arrival="254.00" arrivalLane="39907424_0" arrivalPos="316.44" arrivalSpeed="14.19" duration="149.00" routeLength="1303.68" waitingTime="46.00" waitingCount="1" stopTime="0.00" timeLoss="60.77" rerouteNo="0" devices="tripinfo_49" vType="DEFAULT_VEHTYPE" speedFactor="1.03" vaporized=""/>
    <tripinfo id="33" depart="70.00" departLane="-231177697#2_0" departPos="5.10" departSpeed="0.00" departDelay="0.12" arrival="257.00" arrivalLane="-256961141#1_1" arrivalPos="204.72" arrivalSpeed="12.46" duration="187.00" routeLength="1204.36" waitingTime="80.00" waitingCount="2" stopTime="0.00" timeLoss="102.66" rerouteNo="0" devices="tripinfo_33" vType="DEFAULT_VEHTYPE" speedFactor="0.97" vaporized=""/>
    <tripinfo id="65" depart="138.00" departLane="-231177697#2_0" departPos="5.10" departSpeed="0.00" departDelay="0.35" arrival="258.00" arrivalLane="-256961141#1_1" arrivalPos="204.72" arrivalSpeed="13.90" duration="120.00" routeLength="1204.36" waitingTime="27.00" waitingCount="1" stopTime="0.00" timeLoss="42.57" rerouteNo="0" devices="tripinfo_65" vType="DEFAULT_VEHTYPE" speedFactor="1.05" vaporized=""/>
    <tripinfo id="57" depart="121.00" departLane="E8_0" departPos="5.10" departSpeed="0.00" departDelay="0.29" arrival="260.00" arrivalLane="39907424_0" arrivalPos="316.44" arrivalSpeed="12.24" duration="139.00" routeLength="1303.68" waitingTime="29.00" waitingCount="1" stopTime="0.00" timeLoss="43.90" rerouteNo="0" devices="tripinfo_57" vType="DEFAULT_VEHTYPE" speedFactor="0.96" vaporized=""/>
    <tripinfo id="78" depart="166.00" departLane="-661251539_0" departPos="5.10" departSpeed="0.00" departDelay="0.82" arrival="265.00" arrivalLane="226276377#0_0" arrivalPos="135.52" arrivalSpeed="15.95" duration="99.00" routeLength="783.10" waitingTime="29.00" waitingCount="2" stopTime="0.00" timeLoss="53.79" rerouteNo="0" devices="tripinfo_78" vType="DEFAULT_VEHTYPE" speedFactor="1.19" vaporized=""/>
    <tripinfo id="91" depart="193.00" departLane="E8_0" departPos="5.10" departSpeed="0.00" departDelay="0.29" arrival="272.00" arrivalLane="-256961141#1_0" arrivalPos="204.72" arrivalSpeed="12.60" duration="79.00" routeLength="832.89" waitingTime="5.00" waitingCount="1" stopTime="0.00" timeLoss="14.70" rerouteNo="0" devices="tripinfo_91" vType="DEFAULT_VEHTYPE" speedFactor="0.94" vaporized=""/>
    <tripinfo id="47" depart="100.00" departLane="-218680176#1_0" departPos="5.10" departSpeed="0.00" departDelay="0.47" arrival="274.00" arrivalLane="210831347#0_0" arrivalPos="149.88" arrivalSpeed="10.26" duration="174.00" routeLength="560.58" waitingTime="101.00" waitingCount="3" stopTime="0.00" timeLoss="121.65" rerouteNo="0" devices="tripinfo_47" vType="DEFAULT_VEHTYPE" speedFactor="0.81" vaporized=""/>
    <tripinfo id="77" depart="164.00" departLane="-226276377#1_0" departPos="5.10" departSpeed="0.00" departDelay="0.94" arrival="282.00" arrivalLane="210831345#1_0" arrivalPos="264.29" arrivalSpeed="14.74" duration="118.00" routeLength="977.93" waitingTime="34.00" waitingCount="2" stopTime="0.00" timeLoss="54.98" rerouteNo="0" devices="tripinfo_77" vType="DEFAULT_VEHTYPE" speedFactor="1.08" vaporized=""/>
    <tripinfo id="50" depart="106.00" departLane="-218680176#1_0" departPos="5.10" departSpeed="0.00" departDelay="0.12" arrival="285.00" arrivalLane="231177697#0_0" arrivalPos="74.44" arrivalSpeed="12.00" duration="179.00" routeLength="205.97" waitingTime="139.00" waitingCount="4" stopTime="0.00" timeLoss="162.37" rerouteNo="0" devices="tripinfo_50" vType="DEFAULT_VEHTYPE" speedFactor="0.94" vaporized=""/>
    <tripinfo id="95" depart="202.00" departLane="-661251539_0" departPos="5.10" departSpeed="0.00" departDelay="0.82" arrival="287.00" arrivalLane="210831345#1_1" arrivalPos="264.29" arrivalSpeed="14.83" duration="85.00" routeLength="826.64" waitingTime="8.00" waitingCount="2" stopTime="0.00" timeLoss="30.28" rerouteNo="0" devices="tripinfo_95" vType="DEFAULT_VEHTYPE" speedFactor="1.11" vaporized=""/>
    <tripinfo id="5" depart="11.00" departLane="-226276377#1_0" departPos="5.10" departSpeed="0.00" departDelay="0.41" arrival="288.00" arrivalLane="218680176#0_1" arrivalPos="98.94" arrivalSpeed="14.82" duration="277.00" routeLength="1158.55" waitingTime="186.00" waitingCount="2" stopTime="0.00" timeLoss="206.74" rerouteNo="0" devices="tripinfo_5" vType="DEFAULT_VEHTYPE" speedFactor="1.16" vaporized=""/>
    <tripinfo id="70" depart="149.00" departLane="256961141#0_0" departPos="5.10" departSpeed="0.00" departDelay="0.76" arrival="290.00" arrivalLane="218680176#0_1" arrivalPos="98.94" arrivalSpeed="14.36" duration="141.00" routeLength="1207.47" waitingTime="46.00" waitingCount="1" stopTime="0.00" timeLoss="63.12" rerouteNo="0" devices="tripinfo_70" vType="DEFAULT_VEHTYPE" speedFactor="1.09" vaporized=""/>
    <tripinfo id="74" depart="157.00" departLane="-226276377#1_0" departPos="5.10" departSpeed="0.00" departDelay="0.29" arrival="290.00" arrivalLane="210831345#1_0" arrivalPos="264.29" arrivalSpeed="12.09" duration="133.00" routeLength="977.93" waitingTime="32.00" waitingCount="2" stopTime="0.00" timeLoss="56.26" rerouteNo="0" devices="tripinfo_74" vType="DEFAULT_VEHTYPE" speedFactor="0.89" vaporized=""/>
    <tripinfo id="76" depart="161.00" departLane="-661251539_0" departPos="5.10" departSpeed="0.00" departDelay="0.06" arrival="295.00" arrivalLane="218680176#0_1" arrivalPos="98.94" arrivalSpeed="12.58" duration="134.00" routeLength="1001.21" waitingTime="34.00" waitingCount="3" stopTime="0.00" timeLoss="56.40" rerouteNo="0" devices="tripinfo_76" vType="DEFAULT_VEHTYPE" speedFactor="0.95" vaporized=""/>
    <tripinfo id="48" depart="102.00" departLane="E8_0" departPos="5.10" departSpeed="0.00" departDelay="0.35" arrival="296.00" arrivalLane="218680176#0_1" arrivalPos="98.94" arrivalSpeed="13.10" duration="194.00" routeLength="1637.20" waitingTime="51.00" waitingCount="1" stopTime="0.00" timeLoss="82.25" rerouteNo="0" devices="tripinfo_48" vType="DEFAULT_VEHTYPE" speedFactor="1.02" vaporized=""/>
    <tripinfo id="71" depart="151.00" departLane="-231177697#2_0" departPos="5.10" departSpeed="0.00" departDelay="0.65" arrival="297.00" arrivalLane="39907424_0" arrivalPos="316.44" arrivalSpeed="14.08" duration="146.00" routeLength="961.15" waitingTime="66.00" waitingCount="1" stopTime="0.00" timeLoss="82.43" rerouteNo="0" devices="tripinfo_71" vType="DEFAULT_VEHTYPE" speedFactor="1.07" vaporized=""/>
    <tripinfo id="43" depart="92.00" departLane="E8_0" departPos="5.10" departSpeed="0.00" departDelay="0.94" arrival="298.00" arrivalLane="218680176#0_1" arrivalPos="98.94" arrivalSpeed="13.40" duration="206.00" routeLength="1637.20" waitingTime="66.00" waitingCount="2" stopTime="0.00" timeLoss="97.26" rerouteNo="0" devices="tripinfo_43" vType="DEFAULT_VEHTYPE" speedFactor="1.06" vaporized=""/>
    <tripinfo id="89" depart="189.00" departLane="-661251539_0" departPos="5.10" departSpeed="0.00" departDelay="0.53" arrival="300.00" arrivalLane="218680176#0_1" arrivalPos="98.94" arrivalSpeed="12.88" duration="111.00" routeLength="1001.21" waitingTime="13.00" waitingCount="1" stopTime="0.00" timeLoss="35.30" rerouteNo="0" devices="tripinfo_89" vType="DEFAULT_VEHTYPE" speedFactor="0.97" vaporized=""/>
    <tripinfo id="38" depart="81.00" departLane="E8_0" departPos="5.10" departSpeed="0.00" departDelay="0.53" arrival="303.00" arrivalLane="218680176#0_1" arrivalPos="98.94" arrivalSpeed="12.11" duration="222.00" routeLength="1637.20" waitingTime="71.00" waitingCount="2" stopTime="0.00" timeLoss="97.30" rerouteNo="0" devices="tripinfo_38" vType="DEFAULT_VEHTYPE" speedFactor="0.92" vaporized=""/>
    <tripinfo id="105" depart="223.00" departLane="-231177697#2_0" departPos="5.10" departSpeed="0.00" departDelay="0.65" arrival="303.00" arrivalLane="39907424_0" arrivalPos="316.44" arrivalSpeed="13.04" duration="80.00" routeLength="961.15" waitingTime="0.00" waitingCount="0" stopTime="0.00" timeLoss="11.28" rerouteNo="0" devices="tripinfo_105" vType="DEFAULT_VEHTYPE" speedFactor="0.99" vaporized=""/>
    <tripinfo id="117" depart="248.00" departLane="-231177697#2_0" departPos="5.10" departSpeed="0.00" departDelay="0.24" arrival="304.00" arrivalLane="153964138#0_0" arrivalPos="337.99" arrivalSpeed="12.21" duration="56.00" routeLength="417.38" waitingTime="12.00" waitingCount="1" stopTime="0.00" timeLoss="21.59" rerouteNo="0" devices="tripinfo_117" vType="DEFAULT_VEHTYPE" speedFactor="0.78" vaporized=""/>
    <tripinfo id="132" depart="280.00" departLane="978867529_0" departPos="5.10" departSpeed="0.00" departDelay="0.47" arrival="314.00" arrivalLane="231177697#0_1" arrivalPos="74.44" arrivalSpeed="12.68" duration="34.00" routeLength="437.06" waitingTime="0.00" waitingCount="0" stopTime="0.00" timeLoss="5.42" rerouteNo="0" devices="tripinfo_132" vType="DEFAULT_VEHTYPE" speedFactor="1.00" vaporized=""/>
    <tripinfo id="110" depart="233.00" departLane="E8_0" departPos="5.10" departSpeed="0.00" departDelay="0.06" arrival="318.00" arrivalLane="226276377#0_1" arrivalPos="135.52" arrivalSpeed="14.43" duration="85.00" routeLength="784.51" waitingTime="19.00" waitingCount="1" stopTime="0.00" timeLoss="29.95" rerouteNo="0" devices="tripinfo_110" vType="DEFAULT_VEHTYPE" speedFactor="1.05" vaporized=""/>
    <tripinfo id="121" depart="257.00" departLane="256961141#0_0" departPos="5.10" departSpeed="0.00" departDelay="0.76" arrival="319.00" arrivalLane="450554042#0_1" arrivalPos="622.66" arrivalSpeed="18.42" duration="62.00" routeLength="853.74" waitingTime="1.00" waitingCount="1" stopTime="0.00" timeLoss="12.32" rerouteNo="0" devices="tripinfo_121" vType="DEFAULT_VEHTYPE" speedFactor="1.11" vaporized=""/>
    <tripinfo id="99" depart="210.00" departLane="E8_0" departPos="5.10" departSpeed="0.00" departDelay="0.35" arrival="324.00" arrivalLane="39907424_0" arrivalPos="316.44" arrivalSpeed="12.23" duration="114.00" routeLength="1303.68" waitingTime="0.00" waitingCount="0" stopTime="0.00" timeLoss="12.10" rerouteNo="0" devices="tripinfo_99" vType="DEFAULT_VEHTYPE" speedFactor="0.89" vaporized=""/>
    <tripinfo id="103" depart="219.00" departLane="-661251539_0" departPos="5.10" departSpeed="0.00" departDelay="0.88" arrival="325.00" arrivalLane="-256961141#1_1" arrivalPos="204.72" arrivalSpeed="11.43" duration="106.00" routeLength="872.91" waitingTime="26.00" waitingCount="1" stopTime="0.00" timeLoss="38.85" rerouteNo="0" devices="tripinfo_103" vType="DEFAULT_VEHTYPE" speedFactor="0.90" vaporized=""/>
    <tripinfo id="45" depart="97.00" departLane="-218680176#1_0" departPos="5.10" departSpeed="0.00" departDelay="1.71" arrival="344.00" arrivalLane="226276377#0_0" arrivalPos="135.52" arrivalSpeed="13.32" duration="247.00" routeLength="1117.57" waitingTime="146.00" waitingCount="4" stopTime="0.00" timeLoss="173.72" rerouteNo="0" devices="tripinfo_45" vType="DEFAULT_VEHTYPE" speedFactor="1.04" vaporized=""/>
    <tripinfo id="120" depart="255.00" departLane="-661251539_0" departPos="5.10" departSpeed="0.00" departDelay="0.88" arrival="347.00" arrivalLane="226276377#0_0" arrivalPos="135.52" arrivalSpeed="11.85" duration="92.00" routeLength="783.10" waitingTime="19.00" waitingCount="1" stopTime="0.00" timeLoss="33.33" rerouteNo="0" devices="tripinfo_120" vType="DEFAULT_VEHTYPE" speedFactor="0.93" vaporized=""/>
    <tripinfo id="68" depart="144.00" departLane="-218680176#1_0" departPos="5.10" departSpeed="0.00" departDelay="0.00" arrival="360.00" arrivalLane="231177697#0_0" arrivalPos="74.44" arrivalSpeed="11.09" duration="216.00" routeLength="205.97" waitingTime="163.00" waitingCount="7" stopTime="0.00" timeLoss="198.34" rerouteNo="0" devices="tripinfo_68" vType="DEFAULT_VEHTYPE" speedFactor="0.84" vaporized=""/>