<?xml version="1.0" encoding="UTF-8"?>

<!-- generated on 2024-09-03 02:44:26 by Eclipse SUMO sumo Version 1.20.0
<configuration xmlns:xsi="http://www.w3.org/2001/XMLSchema-instance" xsi:noNamespaceSchemaLocation="http://sumo.dlr.de/xsd/sumoConfiguration.xsd">

    <input>
        <net-file value="c:\self\School\Master\Disertation\code\RESCO\resco_benchmark\environments/unirii/osm.net.xml.gz"/>
        <route-files value="c:\self\School\Master\Disertation\code\RESCO\resco_benchmark\environments/unirii/osm.passenger.trips.xml"/>
        <additional-files value="c:\self\School\Master\Disertation\code\RESCO\resco_benchmark\environments/unirii/osm.poly.xml.gz"/>
    </input>

    <output>
        <tripinfo-output value="C:\self\School\Master\Disertation\code\RESCO\results\IA2C-tr0-unirii-0-drq_norm-wait_norm\tripinfo_47.xml"/>
        <tripinfo-output.write-unfinished value="true"/>
    </output>

    <processing>
        <ignore-route-errors value="true"/>
        <time-to-teleport value="-1"/>
    </processing>

    <routing>
        <device.rerouting.adaptation-steps value="18"/>
        <device.rerouting.adaptation-interval value="10"/>
    </routing>

    <report>
        <verbose value="true"/>
        <no-warnings value="True"/>
        <duration-log.statistics value="true"/>
        <no-step-log value="True"/>
    </report>

    <traci_server>
        <remote-port value="52301"/>
    </traci_server>

    <random_number>
        <random value="true"/>
    </random_number>

    <gui_only>
        <gui-settings-file value="c:\self\School\Master\Disertation\code\RESCO\resco_benchmark\environments/unirii/osm.view.xml"/>
    </gui_only>

</configuration>
-->

<tripinfos xmlns:xsi="http://www.w3.org/2001/XMLSchema-instance" xsi:noNamespaceSchemaLocation="http://sumo.dlr.de/xsd/tripinfo_file.xsd">
    <tripinfo id="10" depart="23.00" departLane="978867529_0" departPos="5.10" departSpeed="0.00" departDelay="1.82" arrival="63.00" arrivalLane="231177697#0_1" arrivalPos="74.44" arrivalSpeed="13.64" duration="40.00" routeLength="437.06" waitingTime="1.00" waitingCount="1" stopTime="0.00" timeLoss="12.59" rerouteNo="0" devices="tripinfo_10" vType="DEFAULT_VEHTYPE" speedFactor="1.05" vaporized=""/>
    <tripinfo id="15" depart="33.00" departLane="978867529_0" departPos="5.10" departSpeed="0.00" departDelay="1.24" arrival="68.00" arrivalLane="231177697#0_1" arrivalPos="74.44" arrivalSpeed="12.63" duration="35.00" routeLength="437.06" waitingTime="0.00" waitingCount="0" stopTime="0.00" timeLoss="5.30" rerouteNo="0" devices="tripinfo_15" vType="DEFAULT_VEHTYPE" speedFactor="0.95" vaporized=""/>
    <tripinfo id="3" depart="7.00" departLane="E8_0" departPos="5.10" departSpeed="0.00" departDelay="0.65" arrival="76.00" arrivalLane="-256961141#1_0" arrivalPos="204.72" arrivalSpeed="13.62" duration="69.00" routeLength="832.89" waitingTime="0.00" waitingCount="0" stopTime="0.00" timeLoss="9.02" rerouteNo="0" devices="tripinfo_3" vType="DEFAULT_VEHTYPE" speedFactor="1.02" vaporized=""/>
    <tripinfo id="6" depart="13.00" departLane="-218680176#1_0" departPos="5.10" departSpeed="0.00" departDelay="0.29" arrival="109.00" arrivalLane="153964138#0_1" arrivalPos="337.99" arrivalSpeed="12.82" duration="96.00" routeLength="462.27" waitingTime="50.00" waitingCount="1" stopTime="0.00" timeLoss="60.07" rerouteNo="0" devices="tripinfo_6" vType="DEFAULT_VEHTYPE" speedFactor="0.84" vaporized=""/>
    <tripinfo id="16" depart="34.00" departLane="256961141#0_0" departPos="5.10" departSpeed="0.00" departDelay="0.12" arrival="121.00" arrivalLane="450554042#0_0" arrivalPos="622.66" arrivalSpeed="16.37" duration="87.00" routeLength="853.74" waitingTime="23.00" waitingCount="1" stopTime="0.00" timeLoss="33.76" rerouteNo="0" devices="tripinfo_16" vType="DEFAULT_VEHTYPE" speedFactor="1.03" vaporized=""/>
    <tripinfo id="40" depart="85.00" departLane="65746828#0_0" departPos="5.10" departSpeed="0.00" departDelay="0.29" arrival="132.00" arrivalLane="210831345#1_0" arrivalPos="264.29" arrivalSpeed="12.10" duration="47.00" routeLength="446.75" waitingTime="2.00" waitingCount="1" stopTime="0.00" timeLoss="11.71" rerouteNo="0" devices="tripinfo_40" vType="DEFAULT_VEHTYPE" speedFactor="0.93" vaporized=""/>
    <tripinfo id="30" depart="64.00" departLane="E8_0" departPos="5.10" departSpeed="0.00" departDelay="0.47" arrival="141.00" arrivalLane="226276377#0_1" arrivalPos="135.52" arrivalSpeed="16.08" duration="77.00" routeLength="784.51" waitingTime="19.00" waitingCount="1" stopTime="0.00" timeLoss="30.83" rerouteNo="0" devices="tripinfo_30" vType="DEFAULT_VEHTYPE" speedFactor="1.25" vaporized=""/>
    <tripinfo id="0" depart="0.00" departLane="65746828#0_0" departPos="5.10" departSpeed="0.00" departDelay="0.00" arrival="147.00" arrivalLane="-256961141#1_1" arrivalPos="204.72" arrivalSpeed="14.43" duration="147.00" routeLength="931.50" waitingTime="73.00" waitingCount="1" stopTime="0.00" timeLoss="88.29" rerouteNo="0" devices="tripinfo_0" vType="DEFAULT_VEHTYPE" speedFactor="1.06" vaporized=""/>
    <tripinfo id="4" depart="9.00" departLane="-661251539_0" departPos="5.10" departSpeed="0.00" departDelay="0.53" arrival="149.00" arrivalLane="-256961141#1_1" arrivalPos="204.72" arrivalSpeed="14.10" duration="140.00" routeLength="872.91" waitingTime="69.00" waitingCount="1" stopTime="0.00" timeLoss="84.44" rerouteNo="0" devices="tripinfo_4" vType="DEFAULT_VEHTYPE" speedFactor="1.09" vaporized=""/>
    <tripinfo id="20" depart="43.00" departLane="666135205#0_0" departPos="5.10" departSpeed="0.00" departDelay="0.65" arrival="153.00" arrivalLane="-256961141#1_1" arrivalPos="204.72" arrivalSpeed="13.27" duration="110.00" routeLength="1068.72" waitingTime="22.00" waitingCount="1" stopTime="0.00" timeLoss="35.75" rerouteNo="0" devices="tripinfo_20" vType="DEFAULT_VEHTYPE" speedFactor="0.97" vaporized=""/>
    <tripinfo id="13" depart="28.00" departLane="-218680176#1_0" departPos="5.10" departSpeed="0.00" departDelay="0.47" arrival="158.00" arrivalLane="-256961141#1_1" arrivalPos="204.72" arrivalSpeed="11.93" duration="130.00" routeLength="1207.38" waitingTime="15.00" waitingCount="2" stopTime="0.00" timeLoss="34.00" rerouteNo="0" devices="tripinfo_13" vType="DEFAULT_VEHTYPE" speedFactor="0.86" vaporized=""/>
    <tripinfo id="32" depart="68.00" departLane="978867529_0" departPos="5.10" departSpeed="0.00" departDelay="0.24" arrival="163.00" arrivalLane="231177697#0_1" arrivalPos="74.44" arrivalSpeed="14.56" duration="95.00" routeLength="437.06" waitingTime="58.00" waitingCount="1" stopTime="0.00" timeLoss="67.84" rerouteNo="0" devices="tripinfo_32" vType="DEFAULT_VEHTYPE" speedFactor="1.06" vaporized=""/>
    <tripinfo id="7" depart="15.00" departLane="65746828#0_0" departPos="5.10" departSpeed="0.00" departDelay="0.18" arrival="166.00" arrivalLane="218680176#0_1" arrivalPos="98.94" arrivalSpeed="11.48" duration="151.00" routeLength="602.71" waitingTime="84.00" waitingCount="2" stopTime="0.00" timeLoss="99.79" rerouteNo="0" devices="tripinfo_7" vType="DEFAULT_VEHTYPE" speedFactor="0.87" vaporized=""/>
    <tripinfo id="27" depart="58.00" departLane="65746828#0_0" departPos="5.10" departSpeed="0.00" departDelay="0.82" arrival="166.00" arrivalLane="226276377#0_0" arrivalPos="135.52" arrivalSpeed="14.16" duration="108.00" routeLength="841.69" waitingTime="39.00" waitingCount="2" stopTime="0.00" timeLoss="53.32" rerouteNo="0" devices="tripinfo_27" vType="DEFAULT_VEHTYPE" speedFactor="1.03" vaporized=""/>
    <tripinfo id="17" depart="36.00" departLane="-661251539_0" departPos="5.10" departSpeed="0.00" departDelay="0.00" arrival="168.00" arrivalLane="218680176#0_1" arrivalPos="98.94" arrivalSpeed="14.04" duration="132.00" routeLength="1001.21" waitingTime="50.00" waitingCount="1" stopTime="0.00" timeLoss="62.92" rerouteNo="0" devices="tripinfo_17" vType="DEFAULT_VEHTYPE" speedFactor="1.07" vaporized=""/>
    <tripinfo id="35" depart="75.00" departLane="-226276377#1_0" departPos="5.10" departSpeed="0.00" departDelay="0.88" arrival="195.00" arrivalLane="450554042#0_0" arrivalPos="622.66" arrivalSpeed="14.83" duration="120.00" routeLength="763.53" waitingTime="57.00" waitingCount="1" stopTime="0.00" timeLoss="67.13" rerouteNo="0" devices="tripinfo_35" vType="DEFAULT_VEHTYPE" speedFactor="0.93" vaporized=""/>
    <tripinfo id="41" depart="88.00" departLane="65746828#0_0" departPos="5.10" departSpeed="0.00" departDelay="1.18" arrival="195.00" arrivalLane="450554042#0_1" arrivalPos="622.66" arrivalSpeed="16.71" duration="107.00" routeLength="1340.72" waitingTime="6.00" waitingCount="1" stopTime="0.00" timeLoss="27.29" rerouteNo="0" devices="tripinfo_41" vType="DEFAULT_VEHTYPE" speedFactor="1.06" vaporized=""/>
    <tripinfo id="52" depart="111.00" departLane="-231177697#2_0" departPos="5.10" departSpeed="0.00" departDelay="0.88" arrival="202.00" arrivalLane="226276377#0_0" arrivalPos="135.52" arrivalSpeed="14.32" duration="91.00" routeLength="1114.55" waitingTime="4.00" waitingCount="1" stopTime="0.00" timeLoss="23.35" rerouteNo="0" devices="tripinfo_52" vType="DEFAULT_VEHTYPE" speedFactor="1.11" vaporized=""/>
    <tripinfo id="49" depart="105.00" departLane="E8_0" departPos="5.10" departSpeed="0.00" departDelay="1.24" arrival="203.00" arrivalLane="39907424_0" arrivalPos="316.44" arrivalSpeed="13.54" duration="98.00" routeLength="1303.68" waitingTime="0.00" waitingCount="0" stopTime="0.00" timeLoss="11.57" rerouteNo="0" devices="tripinfo_49" vType="DEFAULT_VEHTYPE" speedFactor="1.05" vaporized=""/>
    <tripinfo id="58" depart="123.00" departLane="-231177697#2_0" departPos="5.10" departSpeed="0.00" departDelay="0.18" arrival="206.00" arrivalLane="226276377#0_0" arrivalPos="135.52" arrivalSpeed="14.26" duration="83.00" routeLength="1114.55" waitingTime="0.00" waitingCount="0" stopTime="0.00" timeLoss="11.75" rerouteNo="0" devices="tripinfo_58" vType="DEFAULT_VEHTYPE" speedFactor="1.07" vaporized=""/>
    <tripinfo id="2" depart="5.00" departLane="666135205#0_0" departPos="5.10" departSpeed="0.00" departDelay="0.76" arrival="212.00" arrivalLane="231177697#0_0" arrivalPos="74.44" arrivalSpeed="14.25" duration="207.00" routeLength="649.17" waitingTime="145.00" waitingCount="2" stopTime="0.00" timeLoss="163.18" rerouteNo="0" devices="tripinfo_2" vType="DEFAULT_VEHTYPE" speedFactor="1.11" vaporized=""/>
    <tripinfo id="31" depart="66.00" departLane="65746828#0_0" departPos="5.10" departSpeed="0.00" departDelay="0.35" arrival="215.00" arrivalLane="231177697#0_0" arrivalPos="74.44" arrivalSpeed="13.96" duration="149.00" routeLength="558.79" waitingTime="92.00" waitingCount="2" stopTime="0.00" timeLoss="107.08" rerouteNo="0" devices="tripinfo_31" vType="DEFAULT_VEHTYPE" speedFactor="1.01" vaporized=""/>
    <tripinfo id="61" depart="130.00" departLane="978867529_0" departPos="5.10" departSpeed="0.00" departDelay="0.82" arrival="219.00" arrivalLane="218680176#0_0" arrivalPos="98.94" arrivalSpeed="13.64" duration="89.00" routeLength="442.15" waitingTime="48.00" waitingCount="1" stopTime="0.00" timeLoss="60.88" rerouteNo="0" devices="tripinfo_61" vType="DEFAULT_VEHTYPE" speedFactor="1.06" vaporized=""/>
    <tripinfo id="28" depart="60.00" departLane="-226276377#1_0" departPos="5.10" departSpeed="0.00" departDelay="0.71" arrival="220.00" arrivalLane="231177697#0_0" arrivalPos="74.44" arrivalSpeed="11.91" duration="160.00" routeLength="1114.63" waitingTime="49.00" waitingCount="3" stopTime="0.00" timeLoss="72.67" rerouteNo="0" devices="tripinfo_28" vType="DEFAULT_VEHTYPE" speedFactor="0.89" vaporized=""/>
    <tripinfo id="57" depart="121.00" departLane="E8_0" departPos="5.10" departSpeed="0.00" departDelay="0.29" arrival="224.00" arrivalLane="39907424_0" arrivalPos="316.44" arrivalSpeed="13.63" duration="103.00" routeLength="1303.68" waitingTime="0.00" waitingCount="0" stopTime="0.00" timeLoss="10.67" rerouteNo="0" devices="tripinfo_57" vType="DEFAULT_VEHTYPE" speedFactor="0.99" vaporized=""/>
    <tripinfo id="26" depart="56.00" departLane="-231177697#2_0" departPos="5.10" departSpeed="0.00" departDelay="0.94" arrival="225.00" arrivalLane="450554042#0_0" arrivalPos="622.66" arrivalSpeed="18.35" duration="169.00" routeLength="1613.58" waitingTime="55.00" waitingCount="2" stopTime="0.00" timeLoss="75.94" rerouteNo="0" devices="tripinfo_26" vType="DEFAULT_VEHTYPE" speedFactor="1.11" vaporized=""/>
    <tripinfo id="59" depart="125.00" departLane="65746828#0_0" departPos="5.10" departSpeed="0.00" departDelay="0.06" arrival="227.00" arrivalLane="153964138#0_1" arrivalPos="337.99" arrivalSpeed="18.08" duration="102.00" routeLength="834.49" waitingTime="39.00" waitingCount="1" stopTime="0.00" timeLoss="51.46" rerouteNo="0" devices="tripinfo_59" vType="DEFAULT_VEHTYPE" speedFactor="1.12" vaporized=""/>
    <tripinfo id="11" depart="24.00" departLane="-661251539_0" departPos="5.10" departSpeed="0.00" departDelay="0.71" arrival="229.00" arrivalLane="153964138#0_0" arrivalPos="337.99" arrivalSpeed="14.68" duration="205.00" routeLength="1239.04" waitingTime="94.00" waitingCount="2" stopTime="0.00" timeLoss="115.37" rerouteNo="0" devices="tripinfo_11" vType="DEFAULT_VEHTYPE" speedFactor="0.95" vaporized=""/>
    <tripinfo id="42" depart="89.00" departLane="-661251539_0" departPos="5.10" departSpeed="0.00" departDelay="0.06" arrival="230.00" arrivalLane="153964138#0_1" arrivalPos="337.99" arrivalSpeed="16.58" duration="141.00" routeLength="1239.04" waitingTime="38.00" waitingCount="2" stopTime="0.00" timeLoss="59.57" rerouteNo="0" devices="tripinfo_42" vType="DEFAULT_VEHTYPE" speedFactor="1.06" vaporized=""/>
    <tripinfo id="25" depart="53.00" departLane="-661251539_0" departPos="5.10" departSpeed="0.00" departDelay="0.06" arrival="233.00" arrivalLane="153964138#0_0" arrivalPos="337.99" arrivalSpeed="14.79" duration="180.00" routeLength="1239.04" waitingTime="68.00" waitingCount="3" stopTime="0.00" timeLoss="88.65" rerouteNo="0" devices="tripinfo_25" vType="DEFAULT_VEHTYPE" speedFactor="0.93" vaporized=""/>
    <tripinfo id="5" depart="11.00" departLane="-226276377#1_0" departPos="5.10" departSpeed="0.00" departDelay="0.41" arrival="242.00" arrivalLane="218680176#0_1" arrivalPos="98.94" arrivalSpeed="11.68" duration="231.00" routeLength="1158.55" waitingTime="114.00" waitingCount="3" stopTime="0.00" timeLoss="136.63" rerouteNo="0" devices="tripinfo_5" vType="DEFAULT_VEHTYPE" speedFactor="0.86" vaporized=""/>
    <tripinfo id="29" depart="63.00" departLane="-226276377#1_0" departPos="5.10" departSpeed="0.00" departDelay="1.59" arrival="244.00" arrivalLane="210831347#0_1" arrivalPos="149.88" arrivalSpeed="14.57" duration="181.00" routeLength="888.52" waitingTime="100.00" waitingCount="2" stopTime="0.00" timeLoss="122.82" rerouteNo="0" devices="tripinfo_29" vType="DEFAULT_VEHTYPE" speedFactor="1.06" vaporized=""/>
    <tripinfo id="12" depart="26.00" departLane="E8_0" departPos="5.10" departSpeed="0.00" departDelay="0.59" arrival="246.00" arrivalLane="210831347#0_1" arrivalPos="149.88" arrivalSpeed="13.90" duration="220.00" routeLength="1367.17" waitingTime="106.00" waitingCount="2" stopTime="0.00" timeLoss="129.60" rerouteNo="0" devices="tripinfo_12" vType="DEFAULT_VEHTYPE" speedFactor="1.06" vaporized=""/>
    <tripinfo id="51" depart="108.00" departLane="666135205#0_0" departPos="5.10" departSpeed="0.00" departDelay="0.00" arrival="247.00" arrivalLane="218680176#0_1" arrivalPos="98.94" arrivalSpeed="10.84" duration="139.00" routeLength="693.09" waitingTime="66.00" waitingCount="1" stopTime="0.00" timeLoss="76.22" rerouteNo="0" devices="tripinfo_51" vType="DEFAULT_VEHTYPE" speedFactor="0.82" vaporized=""/>
    <tripinfo id="60" depart="128.00" departLane="666135205#0_0" departPos="5.10" departSpeed="0.00" departDelay="0.94" arrival="248.00" arrivalLane="218680176#0_1" arrivalPos="98.94" arrivalSpeed="12.45" duration="120.00" routeLength="693.09" waitingTime="51.00" waitingCount="1" stopTime="0.00" timeLoss="70.41" rerouteNo="0" devices="tripinfo_60" vType="DEFAULT_VEHTYPE" speedFactor="1.04" vaporized=""/>
    <tripinfo id="22" depart="47.00" departLane="-218680176#1_0" departPos="5.10" departSpeed="0.00" departDelay="0.41" arrival="251.00" arrivalLane="210831345#1_1" arrivalPos="264.29" arrivalSpeed="14.96" duration="204.00" routeLength="699.94" waitingTime="141.00" waitingCount="2" stopTime="0.00" timeLoss="156.62" rerouteNo="0" devices="tripinfo_22" vType="DEFAULT_VEHTYPE" speedFactor="1.09" vaporized=""/>
    <tripinfo id="92" depart="195.00" departLane="-661251539_0" departPos="5.10" departSpeed="0.00" departDelay="0.18" arrival="251.00" arrivalLane="210831347#0_1" arrivalPos="149.88" arrivalSpeed="15.15" duration="56.00" routeLength="731.18" waitingTime="0.00" waitingCount="0" stopTime="0.00" timeLoss="6.63" rerouteNo="0" devices="tripinfo_92" vType="DEFAULT_VEHTYPE" speedFactor="1.10" vaporized=""/>
    <tripinfo id="1" depart="3.00" departLane="-231177697#2_0" departPos="5.10" departSpeed="0.00" departDelay="0.88" arrival="259.00" arrivalLane="210831345#1_0" arrivalPos="264.29" arrivalSpeed="10.87" duration="256.00" routeLength="696.92" waitingTime="181.00" waitingCount="2" stopTime="0.00" timeLoss="196.24" rerouteNo="0" devices="tripinfo_1" vType="DEFAULT_VEHTYPE" speedFactor="0.86" vaporized=""/>
    <tripinfo id="21" depart="45.00" departLane="-231177697#2_0" departPos="5.10" departSpeed="0.00" departDelay="0.53" arrival="260.00" arrivalLane="210831345#1_1" arrivalPos="264.29" arrivalSpeed="12.16" duration="215.00" routeLength="696.92" waitingTime="139.00" waitingCount="2" stopTime="0.00" timeLoss="158.95" rerouteNo="0" devices="tripinfo_21" vType="DEFAULT_VEHTYPE" speedFactor="0.92" vaporized=""/>
    <tripinfo id="34" depart="72.00" departLane="-231177697#2_0" departPos="5.10" departSpeed="0.00" departDelay="0.00" arrival="262.00" arrivalLane="210831345#1_1" arrivalPos="264.29" arrivalSpeed="12.92" duration="190.00" routeLength="696.92" waitingTime="115.00" waitingCount="1" stopTime="0.00" timeLoss="137.13" rerouteNo="0" devices="tripinfo_34" vType="DEFAULT_VEHTYPE" speedFactor="0.98" vaporized=""/>
    <tripinfo id="23" depart="50.00" departLane="-218680176#1_0" departPos="5.10" departSpeed="0.00" departDelay="1.29" arrival="263.00" arrivalLane="210831345#1_0" arrivalPos="264.29" arrivalSpeed="15.64" duration="213.00" routeLength="699.94" waitingTime="142.00" waitingCount="3" stopTime="0.00" timeLoss="167.66" rerouteNo="0" devices="tripinfo_23" vType="DEFAULT_VEHTYPE" speedFactor="1.14" vaporized=""/>
    <tripinfo id="39" depart="83.00" departLane="-231177697#2_0" departPos="5.10" departSpeed="0.00" departDelay="0.41" arrival="263.00" arrivalLane="210831345#1_1" arrivalPos="264.29" arrivalSpeed="13.03" duration="180.00" routeLength="696.92" waitingTime="114.00" waitingCount="1" stopTime="0.00" timeLoss="128.05" rerouteNo="0" devices="tripinfo_39" vType="DEFAULT_VEHTYPE" speedFactor="0.98" vaporized=""/>
    <tripinfo id="86" depart="183.00" departLane="256961141#0_0" departPos="5.10" departSpeed="0.00" departDelay="0.88" arrival="264.00" arrivalLane="39907424_0" arrivalPos="316.44" arrivalSpeed="12.66" duration="81.00" routeLength="873.95" waitingTime="1.00" waitingCount="1" stopTime="0.00" timeLoss="14.32" rerouteNo="0" devices="tripinfo_86" vType="DEFAULT_VEHTYPE" speedFactor="0.92" vaporized=""/>
    <tripinfo id="78" depart="166.00" departLane="-661251539_0" departPos="5.10" departSpeed="0.00" departDelay="0.82" arrival="266.00" arrivalLane="226276377#0_0" arrivalPos="135.52" arrivalSpeed="13.05" duration="100.00" routeLength="783.10" waitingTime="29.00" waitingCount="2" stopTime="0.00" timeLoss="45.07" rerouteNo="0" devices="tripinfo_78" vType="DEFAULT_VEHTYPE" speedFactor="0.99" vaporized=""/>
    <tripinfo id="36" depart="77.00" departLane="978867529_0" departPos="5.10" departSpeed="0.00" departDelay="0.76" arrival="267.00" arrivalLane="210831345#1_1" arrivalPos="264.29" arrivalSpeed="12.76" duration="190.00" routeLength="951.92" waitingTime="98.00" waitingCount="2" stopTime="0.00" timeLoss="118.89" rerouteNo="0" devices="tripinfo_36" vType="DEFAULT_VEHTYPE" speedFactor="0.92" vaporized=""/>
    <tripinfo id="50" depart="106.00" departLane="-218680176#1_0" departPos="5.10" departSpeed="0.00" departDelay="0.12" arrival="267.00" arrivalLane="231177697#0_0" arrivalPos="74.44" arrivalSpeed="11.79" duration="161.00" routeLength="205.97" waitingTime="129.00" waitingCount="2" stopTime="0.00" timeLoss="144.05" rerouteNo="0" devices="tripinfo_50" vType="DEFAULT_VEHTYPE" speedFactor="0.92" vaporized=""/>
    <tripinfo id="55" depart="117.00" departLane="978867529_0" departPos="5.10" departSpeed="0.00" departDelay="0.53" arrival="268.00" arrivalLane="210831345#1_0" arrivalPos="264.29" arrivalSpeed="14.39" duration="151.00" routeLength="951.92" waitingTime="62.00" waitingCount="1" stopTime="0.00" timeLoss="87.95" rerouteNo="0" devices="tripinfo_55" vType="DEFAULT_VEHTYPE" speedFactor="1.04" vaporized=""/>
    <tripinfo id="54" depart="115.00" departLane="256961141#0_0" departPos="5.10" departSpeed="0.00" departDelay="0.65" arrival="270.00" arrivalLane="450554042#0_1" arrivalPos="622.66" arrivalSpeed="17.73" duration="155.00" routeLength="853.74" waitingTime="92.00" waitingCount="1" stopTime="0.00" timeLoss="103.11" rerouteNo="0" devices="tripinfo_54" vType="DEFAULT_VEHTYPE" speedFactor="1.07" vaporized=""/>
    <tripinfo id="79" depart="168.00" departLane="-231177697#2_0" departPos="5.10" departSpeed="0.00" departDelay="0.71" arrival="270.00" arrivalLane="153964138#0_0" arrivalPos="337.99" arrivalSpeed="18.95" duration="102.00" routeLength="417.38" waitingTime="67.00" waitingCount="1" stopTime="0.00" timeLoss="79.50" rerouteNo="0" devices="tripinfo_79" vType="DEFAULT_VEHTYPE" speedFactor="1.19" vaporized=""/>
    <tripinfo id="91" depart="193.00" departLane="E8_0" departPos="5.10" departSpeed="0.00" departDelay="0.29" arrival="271.00" arrivalLane="-256961141#1_0" arrivalPos="204.72" arrivalSpeed="14.07" duration="78.00" routeLength="832.89" waitingTime="9.00" waitingCount="1" stopTime="0.00" timeLoss="20.45" rerouteNo="0" devices="tripinfo_91" vType="DEFAULT_VEHTYPE" speedFactor="1.06" vaporized=""/>
    <tripinfo id="68" depart="144.00" departLane="-218680176#1_0" departPos="5.10" departSpeed="0.00" departDelay="0.00" arrival="273.00" arrivalLane="231177697#0_0" arrivalPos="74.44" arrivalSpeed="12.64" duration="129.00" routeLength="205.97" waitingTime="94.00" waitingCount="2" stopTime="0.00" timeLoss="112.52" rerouteNo="0" devices="tripinfo_68" vType="DEFAULT_VEHTYPE" speedFactor="0.91" vaporized=""/>
    <tripinfo id="117" depart="248.00" departLane="-231177697#2_0" departPos="5.10" departSpeed="0.00" departDelay="0.24" arrival="289.00" arrivalLane="153964138#0_0" arrivalPos="337.99" arrivalSpeed="12.20" duration="41.00" routeLength="417.38" waitingTime="0.00" waitingCount="0" stopTime="0.00" timeLoss="6.28" rerouteNo="0" devices="tripinfo_117" vType="DEFAULT_VEHTYPE" speedFactor="0.79" vaporized=""/>
    <tripinfo id="115" depart="244.00" departLane="-218680176#1_0" departPos="5.10" departSpeed="0.00" departDelay="0.47" arrival="301.00" arrivalLane="153964138#0_2" arrivalPos="337.99" arrivalSpeed="19.62" duration="57.00" routeLength="462.27" waitingTime="22.00" waitingCount="1" stopTime="0.00" timeLoss="31.72" rerouteNo="0" devices="tripinfo_115" vType="DEFAULT_VEHTYPE" speedFactor="1.20" vaporized=""/>
    <tripinfo id="99" depart="210.00" departLane="E8_0" departPos="5.10" departSpeed="0.00" departDelay="0.35" arrival="305.00" arrivalLane="39907424_0" arrivalPos="316.44" arrivalSpeed="14.53" duration="95.00" routeLength="1303.68" waitingTime="0.00" waitingCount="0" stopTime="0.00" timeLoss="11.41" rerouteNo="0" devices="tripinfo_99" vType="DEFAULT_VEHTYPE" speedFactor="1.09" vaporized=""/>
    <tripinfo id="128" depart="272.00" departLane="-218680176#1_0" departPos="5.10" departSpeed="0.00" departDelay="0.94" arrival="307.00" arrivalLane="153964138#0_2" arrivalPos="337.99" arrivalSpeed="16.78" duration="35.00" routeLength="462.27" waitingTime="0.00" waitingCount="0" stopTime="0.00" timeLoss="5.11" rerouteNo="0" devices="tripinfo_128" vType="DEFAULT_VEHTYPE" speedFactor="1.01" vaporized=""/>
    <tripinfo id="121" depart="257.00" departLane="256961141#0_0" departPos="5.10" departSpeed="0.00" departDelay="0.76" arrival="315.00" arrivalLane="450554042#0_1" arrivalPos="622.66" arrivalSpeed="20.04" duration="58.00" routeLength="853.74" waitingTime="1.00" waitingCount="1" stopTime="0.00" timeLoss="13.24" rerouteNo="0" devices="tripinfo_121" vType="DEFAULT_VEHTYPE" speedFactor="1.22" vaporized=""/>
    <tripinfo id="120" depart="255.00" departLane="-661251539_0" departPos="5.10" departSpeed="0.00" departDelay="0.88" arrival="326.00" arrivalLane="226276377#0_0" arrivalPos="135.52" arrivalSpeed="11.82" duration="71.00" routeLength="783.10" waitingTime="0.00" waitingCount="0" stopTime="0.00" timeLoss="9.46" rerouteNo="0" devices="tripinfo_120" vType="DEFAULT_VEHTYPE" speedFactor="0.89" vaporized=""/>
    <tripinfo id="145" depart="308.00" departLane="-218680176#1_0" departPos="5.10" departSpeed="0.00" departDelay="0.94" arrival="327.00" arrivalLane="231177697#0_0" arrivalPos="74.44" arrivalSpeed="12.71" duration="19.00" routeLength="205.97" waitingTime="0.00" waitingCount="0" stopTime="0.00" timeLoss="3.83" rerouteNo="0" devices="tripinfo_145" vType="DEFAULT_VEHTYPE" speedFactor="1.00" vaporized=""/>
    <tripinfo id="132" depart="280.00" departLane="978867529_0" departPos="5.10" departSpeed="0.00" departDelay="0.47" arrival="338.00" arrivalLane="231177697#0_1" arrivalPos="74.44" arrivalSpeed="12.79" duration="58.00" routeLength="437.06" waitingTime="20.00" waitingCount="1" stopTime="0.00" timeLoss="29.68" rerouteNo="0" devices="tripinfo_132" vType="DEFAULT_VEHTYPE" speedFactor="1.01" vaporized=""/>
    <tripinfo id="141" depart="299.00" departLane="65746828#0_0" departPos="5.10" departSpeed="0.00" departDelay="0.41" arrival="339.00" arrivalLane="210831345#1_0" arrivalPos="264.29" arrivalSpeed="12.26" duration="40.00" routeLength="446.75" waitingTime="0.00" waitingCount="0" stopTime="0.00" timeLoss="4.83" rerouteNo="0" devices="tripinfo_141" vType="DEFAULT_VEHTYPE" speedFactor="0.94" vaporized=""/>
    <tripinfo id="75" depart="159.00" departLane="E8_0" departPos="5.10" departSpeed="0.00" departDelay="0.18" arrival="342.00" arrivalLane="226276377#0_1" arrivalPos="135.52" arrivalSpeed="13.53" duration="183.00" routeLength="784.51" waitingTime="116.00" waitingCount="1" stopTime="0.00" timeLoss="126.56" rerouteNo="0" devices="tripinfo_75" vType="DEFAULT_VEHTYPE" speedFactor="1.01" vaporized=""/>
    <tripinfo id="85" depart="180.00" departLane="E8_0" departPos="5.10" departSpeed="0.00" departDelay="0.00" arrival="345.00" arrivalLane="226276377#0_1" arrivalPos="135.52" arrivalSpeed="13.20" duration="165.00" routeLength="784.51" waitingTime="97.00" waitingCount="1" stopTime="0.00" timeLoss="106.93" rerouteNo="0" devices="tripinfo_85" vType="DEFAULT_VEHTYPE" speedFactor="0.98" vaporized=""/>
    <tripinfo id="46" depart="98.00" departLane="978867529_0" departPos="5.10" departSpeed="0.00" departDelay="0.59" arrival="347.00" arrivalLane="210831347#0_0" arrivalPos="149.88" arrivalSpeed="12.58" duration="249.00" routeLength="812.56" waitingTime="172.00" waitingCount="2" stopTime="0.00" timeLoss="188.15" rerouteNo="0" devices="tripinfo_46" vType="DEFAULT_VEHTYPE" speedFactor="0.93" vaporized=""/>
    <tripinfo id="110" depart="233.00" departLane="E8_0" departPos="5.10" departSpeed="0.00" departDelay="0.06" arrival="347.00" arrivalLane="226276377#0_1" arrivalPos="135.52" arrivalSpeed="14.29" duration="114.00" routeLength="784.51" waitingTime="46.00" waitingCount="1" stopTime="0.00" timeLoss="59.92" rerouteNo="0" devices="tripinfo_110" vType="DEFAULT_VEHTYPE" speedFactor="1.06" vaporized=""/>
    <tripinfo id="146" depart="310.00" departLane="65746828#0_0" departPos="5.10" departSpeed="0.00" departDelay="0.82" arrival="347.00" arrivalLane="210831345#1_0" arrivalPos="264.29" arrivalSpeed="13.32" duration="37.00" routeLength="446.75" waitingTime="0.00" waitingCount="0" stopTime="0.00" timeLoss="4.57" rerouteNo="0" devices="tripinfo_146" vType="DEFAULT_VEHTYPE" speedFactor="1.01" vaporized=""/>
    <tripinfo id="33" depart="70.00" departLane="-231177697#2_0" departPos="5.10" departSpeed="0.00" departDelay="0.12" arrival="348.00" arrivalLane="-256961141#1_1" arrivalPos="204.72" arrivalSpeed="13.86" duration="278.00" routeLength="1204.36" waitingTime="170.00" waitingCount="3" stopTime="0.00" timeLoss="198.07" rerouteNo="0" devices="tripinfo_33" vType="DEFAULT_VEHTYPE" speedFactor="1.02" vaporized=""/>
    <tripinfo id="65" depart="138.00" departLane="-231177697#2_0" departPos="5.10" departSpeed="0.00" departDelay="0.35" arrival="350.00" arrivalLane="-256961141#1_1" arrivalPos="204.72" arrivalSpeed="14.14" duration="212.00" routeLength="1204.36" waitingTime="120.00" waitingCount="1" stopTime="0.00" timeLoss="131.82" rerouteNo="0" devices="tripinfo_65" vType="DEFAULT_VEHTYPE" speedFactor="1.02" vaporized=""/>
    <tripinfo id="47" depart="100.00" departLane="-218680176#1_0" departPos="5.10" departSpeed="0.00" departDelay="0.47" arrival="352.00" arrivalLane="210831347#0_0" arrivalPos="149.88" arrivalSpeed="12.41" duration="252.00" routeLength="560.58" waitingTime="184.00" waitingCount="3" stopTime="0.00" timeLoss="204.66" rerouteNo="0" devices="tripinfo_47" vType="DEFAULT_VEHTYPE" speedFactor="0.91" vaporized=""/>
    <tripinfo id="103" depart="219.00" departLane="-661251539_0" departPos="5.10" departSpeed="0.00" departDelay="0.88" arrival="352.00" arrivalLane="-256961141#1_1" arrivalPos="204.72" arrivalSpeed="14.24" duration="133.00" routeLength="872.91" waitingTime="62.00" waitingCount="1" stopTime="0.00" timeLoss="76.93" rerouteNo="0" devices="tripinfo_103" vType="DEFAULT_VEHTYPE" speedFactor="1.09" vaporized=""/>