<?xml version="1.0" encoding="UTF-8"?>

<!-- generated on 2024-09-03 02:38:11 by Eclipse SUMO sumo Version 1.20.0
<configuration xmlns:xsi="http://www.w3.org/2001/XMLSchema-instance" xsi:noNamespaceSchemaLocation="http://sumo.dlr.de/xsd/sumoConfiguration.xsd">

    <input>
        <net-file value="c:\self\School\Master\Disertation\code\RESCO\resco_benchmark\environments/unirii/osm.net.xml.gz"/>
        <route-files value="c:\self\School\Master\Disertation\code\RESCO\resco_benchmark\environments/unirii/osm.passenger.trips.xml"/>
        <additional-files value="c:\self\School\Master\Disertation\code\RESCO\resco_benchmark\environments/unirii/osm.poly.xml.gz"/>
    </input>

    <output>
        <tripinfo-output value="C:\self\School\Master\Disertation\code\RESCO\results\IA2C-tr0-unirii-0-drq_norm-wait_norm\tripinfo_16.xml"/>
        <tripinfo-output.write-unfinished value="true"/>
    </output>

    <processing>
        <ignore-route-errors value="true"/>
        <time-to-teleport value="-1"/>
    </processing>

    <routing>
        <device.rerouting.adaptation-steps value="18"/>
        <device.rerouting.adaptation-interval value="10"/>
    </routing>

    <report>
        <verbose value="true"/>
        <no-warnings value="True"/>
        <duration-log.statistics value="true"/>
        <no-step-log value="True"/>
    </report>

    <traci_server>
        <remote-port value="51994"/>
    </traci_server>

    <random_number>
        <random value="true"/>
    </random_number>

    <gui_only>
        <gui-settings-file value="c:\self\School\Master\Disertation\code\RESCO\resco_benchmark\environments/unirii/osm.view.xml"/>
    </gui_only>

</configuration>
-->

<tripinfos xmlns:xsi="http://www.w3.org/2001/XMLSchema-instance" xsi:noNamespaceSchemaLocation="http://sumo.dlr.de/xsd/tripinfo_file.xsd">
    <tripinfo id="10" depart="23.00" departLane="978867529_0" departPos="5.10" departSpeed="0.00" departDelay="1.82" arrival="63.00" arrivalLane="231177697#0_1" arrivalPos="74.44" arrivalSpeed="14.35" duration="40.00" routeLength="437.06" waitingTime="3.00" waitingCount="1" stopTime="0.00" timeLoss="13.30" rerouteNo="0" devices="tripinfo_10" vType="DEFAULT_VEHTYPE" speedFactor="1.09" vaporized=""/>
    <tripinfo id="15" depart="33.00" departLane="978867529_0" departPos="5.10" departSpeed="0.00" departDelay="1.24" arrival="64.00" arrivalLane="231177697#0_1" arrivalPos="74.44" arrivalSpeed="15.76" duration="31.00" routeLength="437.06" waitingTime="0.00" waitingCount="0" stopTime="0.00" timeLoss="6.57" rerouteNo="0" devices="tripinfo_15" vType="DEFAULT_VEHTYPE" speedFactor="1.16" vaporized=""/>
    <tripinfo id="4" depart="9.00" departLane="-661251539_0" departPos="5.10" departSpeed="0.00" departDelay="0.53" arrival="99.00" arrivalLane="-256961141#1_1" arrivalPos="204.72" arrivalSpeed="11.60" duration="90.00" routeLength="872.91" waitingTime="13.00" waitingCount="1" stopTime="0.00" timeLoss="24.33" rerouteNo="0" devices="tripinfo_4" vType="DEFAULT_VEHTYPE" speedFactor="0.92" vaporized=""/>
    <tripinfo id="0" depart="0.00" departLane="65746828#0_0" departPos="5.10" departSpeed="0.00" departDelay="0.00" arrival="101.00" arrivalLane="-256961141#1_1" arrivalPos="204.72" arrivalSpeed="13.12" duration="101.00" routeLength="931.50" waitingTime="22.00" waitingCount="2" stopTime="0.00" timeLoss="37.39" rerouteNo="0" devices="tripinfo_0" vType="DEFAULT_VEHTYPE" speedFactor="0.98" vaporized=""/>
    <tripinfo id="2" depart="5.00" departLane="666135205#0_0" departPos="5.10" departSpeed="0.00" departDelay="0.76" arrival="112.00" arrivalLane="231177697#0_0" arrivalPos="74.44" arrivalSpeed="13.91" duration="107.00" routeLength="649.17" waitingTime="49.00" waitingCount="1" stopTime="0.00" timeLoss="59.32" rerouteNo="0" devices="tripinfo_2" vType="DEFAULT_VEHTYPE" speedFactor="1.02" vaporized=""/>
    <tripinfo id="31" depart="66.00" departLane="65746828#0_0" departPos="5.10" departSpeed="0.00" departDelay="0.35" arrival="114.00" arrivalLane="231177697#0_0" arrivalPos="74.44" arrivalSpeed="15.75" duration="48.00" routeLength="558.79" waitingTime="0.00" waitingCount="0" stopTime="0.00" timeLoss="12.65" rerouteNo="0" devices="tripinfo_31" vType="DEFAULT_VEHTYPE" speedFactor="1.20" vaporized=""/>
    <tripinfo id="40" depart="85.00" departLane="65746828#0_0" departPos="5.10" departSpeed="0.00" departDelay="0.29" arrival="127.00" arrivalLane="210831345#1_0" arrivalPos="264.29" arrivalSpeed="13.77" duration="42.00" routeLength="446.75" waitingTime="2.00" waitingCount="1" stopTime="0.00" timeLoss="11.71" rerouteNo="0" devices="tripinfo_40" vType="DEFAULT_VEHTYPE" speedFactor="1.08" vaporized=""/>
    <tripinfo id="35" depart="75.00" departLane="-226276377#1_0" departPos="5.10" departSpeed="0.00" departDelay="0.88" arrival="138.00" arrivalLane="450554042#0_0" arrivalPos="622.66" arrivalSpeed="17.73" duration="63.00" routeLength="763.53" waitingTime="7.00" waitingCount="1" stopTime="0.00" timeLoss="18.16" rerouteNo="0" devices="tripinfo_35" vType="DEFAULT_VEHTYPE" speedFactor="1.09" vaporized=""/>
    <tripinfo id="6" depart="13.00" departLane="-218680176#1_0" departPos="5.10" departSpeed="0.00" departDelay="0.29" arrival="151.00" arrivalLane="153964138#0_2" arrivalPos="337.99" arrivalSpeed="19.20" duration="138.00" routeLength="462.27" waitingTime="102.00" waitingCount="1" stopTime="0.00" timeLoss="112.30" rerouteNo="0" devices="tripinfo_6" vType="DEFAULT_VEHTYPE" speedFactor="1.16" vaporized=""/>
    <tripinfo id="22" depart="47.00" departLane="-218680176#1_0" departPos="5.10" departSpeed="0.00" departDelay="0.41" arrival="154.00" arrivalLane="210831345#1_1" arrivalPos="264.29" arrivalSpeed="12.57" duration="107.00" routeLength="699.94" waitingTime="41.00" waitingCount="2" stopTime="0.00" timeLoss="53.75" rerouteNo="0" devices="tripinfo_22" vType="DEFAULT_VEHTYPE" speedFactor="0.97" vaporized=""/>
    <tripinfo id="23" depart="50.00" departLane="-218680176#1_0" departPos="5.10" departSpeed="0.00" departDelay="1.29" arrival="156.00" arrivalLane="210831345#1_1" arrivalPos="264.29" arrivalSpeed="13.10" duration="106.00" routeLength="699.94" waitingTime="35.00" waitingCount="2" stopTime="0.00" timeLoss="53.17" rerouteNo="0" devices="tripinfo_23" vType="DEFAULT_VEHTYPE" speedFactor="0.99" vaporized=""/>
    <tripinfo id="36" depart="77.00" departLane="978867529_0" departPos="5.10" departSpeed="0.00" departDelay="0.76" arrival="157.00" arrivalLane="210831345#1_0" arrivalPos="264.29" arrivalSpeed="15.02" duration="80.00" routeLength="951.92" waitingTime="1.00" waitingCount="1" stopTime="0.00" timeLoss="23.58" rerouteNo="0" devices="tripinfo_36" vType="DEFAULT_VEHTYPE" speedFactor="1.17" vaporized=""/>
    <tripinfo id="30" depart="64.00" departLane="E8_0" departPos="5.10" departSpeed="0.00" departDelay="0.47" arrival="167.00" arrivalLane="226276377#0_1" arrivalPos="135.52" arrivalSpeed="14.90" duration="103.00" routeLength="784.51" waitingTime="40.00" waitingCount="1" stopTime="0.00" timeLoss="50.76" rerouteNo="0" devices="tripinfo_30" vType="DEFAULT_VEHTYPE" speedFactor="1.10" vaporized=""/>
    <tripinfo id="61" depart="130.00" departLane="978867529_0" departPos="5.10" departSpeed="0.00" departDelay="0.82" arrival="168.00" arrivalLane="218680176#0_0" arrivalPos="98.94" arrivalSpeed="12.35" duration="38.00" routeLength="442.15" waitingTime="0.00" waitingCount="0" stopTime="0.00" timeLoss="6.30" rerouteNo="0" devices="tripinfo_61" vType="DEFAULT_VEHTYPE" speedFactor="0.90" vaporized=""/>
    <tripinfo id="20" depart="43.00" departLane="666135205#0_0" departPos="5.10" departSpeed="0.00" departDelay="0.65" arrival="174.00" arrivalLane="-256961141#1_1" arrivalPos="204.72" arrivalSpeed="12.83" duration="131.00" routeLength="1068.72" waitingTime="39.00" waitingCount="2" stopTime="0.00" timeLoss="54.33" rerouteNo="0" devices="tripinfo_20" vType="DEFAULT_VEHTYPE" speedFactor="0.94" vaporized=""/>
    <tripinfo id="1" depart="3.00" departLane="-231177697#2_0" departPos="5.10" departSpeed="0.00" departDelay="0.88" arrival="177.00" arrivalLane="210831345#1_1" arrivalPos="264.29" arrivalSpeed="14.06" duration="174.00" routeLength="696.92" waitingTime="113.00" waitingCount="1" stopTime="0.00" timeLoss="124.33" rerouteNo="0" devices="tripinfo_1" vType="DEFAULT_VEHTYPE" speedFactor="1.03" vaporized=""/>
    <tripinfo id="16" depart="34.00" departLane="256961141#0_0" departPos="5.10" departSpeed="0.00" departDelay="0.12" arrival="178.00" arrivalLane="450554042#0_0" arrivalPos="622.66" arrivalSpeed="13.11" duration="144.00" routeLength="853.74" waitingTime="71.00" waitingCount="1" stopTime="0.00" timeLoss="80.08" rerouteNo="0" devices="tripinfo_16" vType="DEFAULT_VEHTYPE" speedFactor="0.85" vaporized=""/>
    <tripinfo id="21" depart="45.00" departLane="-231177697#2_0" departPos="5.10" departSpeed="0.00" departDelay="0.53" arrival="179.00" arrivalLane="210831345#1_1" arrivalPos="264.29" arrivalSpeed="14.73" duration="134.00" routeLength="696.92" waitingTime="73.00" waitingCount="1" stopTime="0.00" timeLoss="86.30" rerouteNo="0" devices="tripinfo_21" vType="DEFAULT_VEHTYPE" speedFactor="1.08" vaporized=""/>
    <tripinfo id="34" depart="72.00" departLane="-231177697#2_0" departPos="5.10" departSpeed="0.00" departDelay="0.00" arrival="187.00" arrivalLane="210831345#1_1" arrivalPos="264.29" arrivalSpeed="12.58" duration="115.00" routeLength="696.92" waitingTime="50.00" waitingCount="1" stopTime="0.00" timeLoss="63.23" rerouteNo="0" devices="tripinfo_34" vType="DEFAULT_VEHTYPE" speedFactor="0.99" vaporized=""/>
    <tripinfo id="39" depart="83.00" departLane="-231177697#2_0" departPos="5.10" departSpeed="0.00" departDelay="0.41" arrival="189.00" arrivalLane="210831345#1_0" arrivalPos="264.29" arrivalSpeed="15.52" duration="106.00" routeLength="696.92" waitingTime="42.00" waitingCount="1" stopTime="0.00" timeLoss="59.74" rerouteNo="0" devices="tripinfo_39" vType="DEFAULT_VEHTYPE" speedFactor="1.13" vaporized=""/>
    <tripinfo id="54" depart="115.00" departLane="256961141#0_0" departPos="5.10" departSpeed="0.00" departDelay="0.65" arrival="191.00" arrivalLane="450554042#0_0" arrivalPos="622.66" arrivalSpeed="12.68" duration="76.00" routeLength="853.74" waitingTime="0.00" waitingCount="0" stopTime="0.00" timeLoss="6.77" rerouteNo="0" devices="tripinfo_54" vType="DEFAULT_VEHTYPE" speedFactor="0.79" vaporized=""/>
    <tripinfo id="7" depart="15.00" departLane="65746828#0_0" departPos="5.10" departSpeed="0.00" departDelay="0.18" arrival="215.00" arrivalLane="218680176#0_1" arrivalPos="98.94" arrivalSpeed="12.57" duration="200.00" routeLength="602.71" waitingTime="141.00" waitingCount="2" stopTime="0.00" timeLoss="154.26" rerouteNo="0" devices="tripinfo_7" vType="DEFAULT_VEHTYPE" speedFactor="0.98" vaporized=""/>
    <tripinfo id="32" depart="68.00" departLane="978867529_0" departPos="5.10" departSpeed="0.00" departDelay="0.24" arrival="215.00" arrivalLane="231177697#0_1" arrivalPos="74.44" arrivalSpeed="10.52" duration="147.00" routeLength="437.06" waitingTime="102.00" waitingCount="1" stopTime="0.00" timeLoss="111.38" rerouteNo="0" devices="tripinfo_32" vType="DEFAULT_VEHTYPE" speedFactor="0.80" vaporized=""/>
    <tripinfo id="27" depart="58.00" departLane="65746828#0_0" departPos="5.10" departSpeed="0.00" departDelay="0.82" arrival="217.00" arrivalLane="226276377#0_0" arrivalPos="135.52" arrivalSpeed="12.17" duration="159.00" routeLength="841.69" waitingTime="88.00" waitingCount="1" stopTime="0.00" timeLoss="99.19" rerouteNo="0" devices="tripinfo_27" vType="DEFAULT_VEHTYPE" speedFactor="0.94" vaporized=""/>
    <tripinfo id="51" depart="108.00" departLane="666135205#0_0" departPos="5.10" departSpeed="0.00" departDelay="0.00" arrival="217.00" arrivalLane="218680176#0_1" arrivalPos="98.94" arrivalSpeed="13.70" duration="109.00" routeLength="693.09" waitingTime="45.00" waitingCount="2" stopTime="0.00" timeLoss="61.15" rerouteNo="0" devices="tripinfo_51" vType="DEFAULT_VEHTYPE" speedFactor="1.08" vaporized=""/>
    <tripinfo id="60" depart="128.00" departLane="666135205#0_0" departPos="5.10" departSpeed="0.00" departDelay="0.94" arrival="219.00" arrivalLane="218680176#0_1" arrivalPos="98.94" arrivalSpeed="13.33" duration="91.00" routeLength="693.09" waitingTime="24.00" waitingCount="2" stopTime="0.00" timeLoss="39.03" rerouteNo="0" devices="tripinfo_60" vType="DEFAULT_VEHTYPE" speedFactor="0.99" vaporized=""/>
    <tripinfo id="29" depart="63.00" departLane="-226276377#1_0" departPos="5.10" departSpeed="0.00" departDelay="1.59" arrival="220.00" arrivalLane="210831347#0_1" arrivalPos="149.88" arrivalSpeed="12.70" duration="157.00" routeLength="888.52" waitingTime="75.00" waitingCount="2" stopTime="0.00" timeLoss="91.56" rerouteNo="0" devices="tripinfo_29" vType="DEFAULT_VEHTYPE" speedFactor="0.94" vaporized=""/>
    <tripinfo id="53" depart="113.00" departLane="-226276377#1_0" departPos="5.10" departSpeed="0.00" departDelay="0.76" arrival="221.00" arrivalLane="210831347#0_1" arrivalPos="149.88" arrivalSpeed="14.89" duration="108.00" routeLength="888.52" waitingTime="27.00" waitingCount="2" stopTime="0.00" timeLoss="53.58" rerouteNo="0" devices="tripinfo_53" vType="DEFAULT_VEHTYPE" speedFactor="1.12" vaporized=""/>
    <tripinfo id="3" depart="7.00" departLane="E8_0" departPos="5.10" departSpeed="0.00" departDelay="0.65" arrival="225.00" arrivalLane="-256961141#1_0" arrivalPos="204.72" arrivalSpeed="10.96" duration="218.00" routeLength="832.89" waitingTime="134.00" waitingCount="1" stopTime="0.00" timeLoss="144.26" rerouteNo="0" devices="tripinfo_3" vType="DEFAULT_VEHTYPE" speedFactor="0.83" vaporized=""/>
    <tripinfo id="78" depart="166.00" departLane="-661251539_0" departPos="5.10" departSpeed="0.00" departDelay="0.82" arrival="226.00" arrivalLane="226276377#0_0" arrivalPos="135.52" arrivalSpeed="14.82" duration="60.00" routeLength="783.10" waitingTime="0.00" waitingCount="0" stopTime="0.00" timeLoss="8.68" rerouteNo="0" devices="tripinfo_78" vType="DEFAULT_VEHTYPE" speedFactor="1.07" vaporized=""/>
    <tripinfo id="55" depart="117.00" departLane="978867529_0" departPos="5.10" departSpeed="0.00" departDelay="0.53" arrival="231.00" arrivalLane="210831345#1_0" arrivalPos="264.29" arrivalSpeed="11.74" duration="114.00" routeLength="951.92" waitingTime="23.00" waitingCount="2" stopTime="0.00" timeLoss="39.86" rerouteNo="0" devices="tripinfo_55" vType="DEFAULT_VEHTYPE" speedFactor="0.89" vaporized=""/>
    <tripinfo id="50" depart="106.00" departLane="-218680176#1_0" departPos="5.10" departSpeed="0.00" departDelay="0.12" arrival="240.00" arrivalLane="231177697#0_0" arrivalPos="74.44" arrivalSpeed="13.09" duration="134.00" routeLength="205.97" waitingTime="106.00" waitingCount="1" stopTime="0.00" timeLoss="119.18" rerouteNo="0" devices="tripinfo_50" vType="DEFAULT_VEHTYPE" speedFactor="1.02" vaporized=""/>
    <tripinfo id="41" depart="88.00" departLane="65746828#0_0" departPos="5.10" departSpeed="0.00" departDelay="1.18" arrival="248.00" arrivalLane="450554042#0_0" arrivalPos="622.66" arrivalSpeed="15.68" duration="160.00" routeLength="1340.72" waitingTime="55.00" waitingCount="1" stopTime="0.00" timeLoss="72.68" rerouteNo="0" devices="tripinfo_41" vType="DEFAULT_VEHTYPE" speedFactor="0.97" vaporized=""/>
    <tripinfo id="68" depart="144.00" departLane="-218680176#1_0" departPos="5.10" departSpeed="0.00" departDelay="0.00" arrival="249.00" arrivalLane="231177697#0_0" arrivalPos="74.44" arrivalSpeed="13.21" duration="105.00" routeLength="205.97" waitingTime="75.00" waitingCount="1" stopTime="0.00" timeLoss="90.08" rerouteNo="0" devices="tripinfo_68" vType="DEFAULT_VEHTYPE" speedFactor="1.01" vaporized=""/>
    <tripinfo id="79" depart="168.00" departLane="-231177697#2_0" departPos="5.10" departSpeed="0.00" departDelay="0.71" arrival="251.00" arrivalLane="153964138#0_0" arrivalPos="337.99" arrivalSpeed="13.89" duration="83.00" routeLength="417.38" waitingTime="43.00" waitingCount="1" stopTime="0.00" timeLoss="52.71" rerouteNo="0" devices="tripinfo_79" vType="DEFAULT_VEHTYPE" speedFactor="0.91" vaporized=""/>
    <tripinfo id="49" depart="105.00" departLane="E8_0" departPos="5.10" departSpeed="0.00" departDelay="1.24" arrival="259.00" arrivalLane="39907424_0" arrivalPos="316.44" arrivalSpeed="13.03" duration="154.00" routeLength="1303.68" waitingTime="45.00" waitingCount="1" stopTime="0.00" timeLoss="60.62" rerouteNo="0" devices="tripinfo_49" vType="DEFAULT_VEHTYPE" speedFactor="0.97" vaporized=""/>
    <tripinfo id="57" depart="121.00" departLane="E8_0" departPos="5.10" departSpeed="0.00" departDelay="0.29" arrival="261.00" arrivalLane="39907424_0" arrivalPos="316.44" arrivalSpeed="14.68" duration="140.00" routeLength="1303.68" waitingTime="37.00" waitingCount="1" stopTime="0.00" timeLoss="56.58" rerouteNo="0" devices="tripinfo_57" vType="DEFAULT_VEHTYPE" speedFactor="1.09" vaporized=""/>
    <tripinfo id="91" depart="193.00" departLane="E8_0" departPos="5.10" departSpeed="0.00" departDelay="0.29" arrival="265.00" arrivalLane="-256961141#1_0" arrivalPos="204.72" arrivalSpeed="12.24" duration="72.00" routeLength="832.89" waitingTime="0.00" waitingCount="0" stopTime="0.00" timeLoss="8.44" rerouteNo="0" devices="tripinfo_91" vType="DEFAULT_VEHTYPE" speedFactor="0.96" vaporized=""/>
    <tripinfo id="12" depart="26.00" departLane="E8_0" departPos="5.10" departSpeed="0.00" departDelay="0.59" arrival="268.00" arrivalLane="210831347#0_1" arrivalPos="149.88" arrivalSpeed="15.22" duration="242.00" routeLength="1367.17" waitingTime="131.00" waitingCount="2" stopTime="0.00" timeLoss="158.40" rerouteNo="0" devices="tripinfo_12" vType="DEFAULT_VEHTYPE" speedFactor="1.14" vaporized=""/>
    <tripinfo id="92" depart="195.00" departLane="-661251539_0" departPos="5.10" departSpeed="0.00" departDelay="0.18" arrival="270.00" arrivalLane="210831347#0_1" arrivalPos="149.88" arrivalSpeed="14.43" duration="75.00" routeLength="731.18" waitingTime="12.00" waitingCount="1" stopTime="0.00" timeLoss="26.28" rerouteNo="0" devices="tripinfo_92" vType="DEFAULT_VEHTYPE" speedFactor="1.10" vaporized=""/>
    <tripinfo id="62" depart="132.00" departLane="-218680176#1_0" departPos="5.10" departSpeed="0.00" departDelay="0.71" arrival="284.00" arrivalLane="210831345#1_1" arrivalPos="264.29" arrivalSpeed="12.78" duration="152.00" routeLength="699.94" waitingTime="83.00" waitingCount="1" stopTime="0.00" timeLoss="97.57" rerouteNo="0" devices="tripinfo_62" vType="DEFAULT_VEHTYPE" speedFactor="0.95" vaporized=""/>
    <tripinfo id="117" depart="248.00" departLane="-231177697#2_0" departPos="5.10" departSpeed="0.00" departDelay="0.24" arrival="284.00" arrivalLane="153964138#0_0" arrivalPos="337.99" arrivalSpeed="14.12" duration="36.00" routeLength="417.38" waitingTime="0.00" waitingCount="0" stopTime="0.00" timeLoss="6.41" rerouteNo="0" devices="tripinfo_117" vType="DEFAULT_VEHTYPE" speedFactor="0.91" vaporized=""/>
    <tripinfo id="90" depart="191.00" departLane="666135205#0_0" departPos="5.10" departSpeed="0.00" departDelay="0.41" arrival="288.00" arrivalLane="231177697#0_0" arrivalPos="74.44" arrivalSpeed="12.61" duration="97.00" routeLength="649.17" waitingTime="25.00" waitingCount="3" stopTime="0.00" timeLoss="43.65" rerouteNo="0" devices="tripinfo_90" vType="DEFAULT_VEHTYPE" speedFactor="0.91" vaporized=""/>
    <tripinfo id="46" depart="98.00" departLane="978867529_0" departPos="5.10" departSpeed="0.00" departDelay="0.59" arrival="296.00" arrivalLane="210831347#0_0" arrivalPos="149.88" arrivalSpeed="12.35" duration="198.00" routeLength="812.56" waitingTime="128.00" waitingCount="1" stopTime="0.00" timeLoss="138.48" rerouteNo="0" devices="tripinfo_46" vType="DEFAULT_VEHTYPE" speedFactor="0.95" vaporized=""/>
    <tripinfo id="69" depart="147.00" departLane="666135205#0_0" departPos="5.10" departSpeed="0.00" departDelay="0.88" arrival="301.00" arrivalLane="153964138#0_0" arrivalPos="337.99" arrivalSpeed="18.05" duration="154.00" routeLength="924.87" waitingTime="79.00" waitingCount="2" stopTime="0.00" timeLoss="97.07" rerouteNo="0" devices="tripinfo_69" vType="DEFAULT_VEHTYPE" speedFactor="1.11" vaporized=""/>
    <tripinfo id="47" depart="100.00" departLane="-218680176#1_0" departPos="5.10" departSpeed="0.00" departDelay="0.47" arrival="302.00" arrivalLane="210831347#0_0" arrivalPos="149.88" arrivalSpeed="15.01" duration="202.00" routeLength="560.58" waitingTime="139.00" waitingCount="2" stopTime="0.00" timeLoss="164.69" rerouteNo="0" devices="tripinfo_47" vType="DEFAULT_VEHTYPE" speedFactor="1.12" vaporized=""/>
    <tripinfo id="88" depart="187.00" departLane="-218680176#1_0" departPos="5.10" departSpeed="0.00" departDelay="0.65" arrival="310.00" arrivalLane="210831347#0_0" arrivalPos="149.88" arrivalSpeed="12.24" duration="123.00" routeLength="560.58" waitingTime="50.00" waitingCount="2" stopTime="0.00" timeLoss="76.06" rerouteNo="0" devices="tripinfo_88" vType="DEFAULT_VEHTYPE" speedFactor="0.91" vaporized=""/>
    <tripinfo id="95" depart="202.00" departLane="-661251539_0" departPos="5.10" departSpeed="0.00" departDelay="0.82" arrival="313.00" arrivalLane="210831345#1_0" arrivalPos="264.29" arrivalSpeed="12.36" duration="111.00" routeLength="826.64" waitingTime="25.00" waitingCount="2" stopTime="0.00" timeLoss="43.47" rerouteNo="0" devices="tripinfo_95" vType="DEFAULT_VEHTYPE" speedFactor="0.90" vaporized=""/>
    <tripinfo id="74" depart="157.00" departLane="-226276377#1_0" departPos="5.10" departSpeed="0.00" departDelay="0.29" arrival="314.00" arrivalLane="210831345#1_1" arrivalPos="264.29" arrivalSpeed="14.99" duration="157.00" routeLength="977.93" waitingTime="79.00" waitingCount="1" stopTime="0.00" timeLoss="94.32" rerouteNo="0" devices="tripinfo_74" vType="DEFAULT_VEHTYPE" speedFactor="1.08" vaporized=""/>
    <tripinfo id="77" depart="164.00" departLane="-226276377#1_0" departPos="5.10" departSpeed="0.00" departDelay="0.94" arrival="319.00" arrivalLane="210831345#1_0" arrivalPos="264.29" arrivalSpeed="13.57" duration="155.00" routeLength="977.93" waitingTime="75.00" waitingCount="1" stopTime="0.00" timeLoss="87.53" rerouteNo="0" devices="tripinfo_77" vType="DEFAULT_VEHTYPE" speedFactor="1.02" vaporized=""/>
    <tripinfo id="119" depart="252.00" departLane="65746828#0_0" departPos="5.10" departSpeed="0.00" departDelay="0.00" arrival="319.00" arrivalLane="226276377#0_0" arrivalPos="135.52" arrivalSpeed="14.56" duration="67.00" routeLength="841.69" waitingTime="3.00" waitingCount="1" stopTime="0.00" timeLoss="17.17" rerouteNo="0" devices="tripinfo_119" vType="DEFAULT_VEHTYPE" speedFactor="1.12" vaporized=""/>
    <tripinfo id="104" depart="222.00" departLane="-661251539_0" departPos="5.10" departSpeed="0.00" departDelay="1.76" arrival="323.00" arrivalLane="450554042#0_0" arrivalPos="622.66" arrivalSpeed="15.42" duration="101.00" routeLength="1282.13" waitingTime="0.00" waitingCount="0" stopTime="0.00" timeLoss="14.47" rerouteNo="0" devices="tripinfo_104" vType="DEFAULT_VEHTYPE" speedFactor="0.96" vaporized=""/>
    <tripinfo id="64" depart="136.00" departLane="978867529_0" departPos="5.10" departSpeed="0.00" departDelay="0.47" arrival="330.00" arrivalLane="39907424_0" arrivalPos="316.44" arrivalSpeed="13.07" duration="194.00" routeLength="1216.15" waitingTime="92.00" waitingCount="1" stopTime="0.00" timeLoss="107.77" rerouteNo="0" devices="tripinfo_64" vType="DEFAULT_VEHTYPE" speedFactor="0.96" vaporized=""/>
    <tripinfo id="115" depart="244.00" departLane="-218680176#1_0" departPos="5.10" departSpeed="0.00" departDelay="0.47" arrival="331.00" arrivalLane="153964138#0_2" arrivalPos="337.99" arrivalSpeed="15.50" duration="87.00" routeLength="462.27" waitingTime="45.00" waitingCount="1" stopTime="0.00" timeLoss="55.27" rerouteNo="0" devices="tripinfo_115" vType="DEFAULT_VEHTYPE" speedFactor="0.95" vaporized=""/>
    <tripinfo id="93" depart="197.00" departLane="978867529_0" departPos="5.10" departSpeed="0.00" departDelay="0.06" arrival="332.00" arrivalLane="210831345#1_0" arrivalPos="264.29" arrivalSpeed="12.43" duration="135.00" routeLength="951.92" waitingTime="52.00" waitingCount="1" stopTime="0.00" timeLoss="63.10" rerouteNo="0" devices="tripinfo_93" vType="DEFAULT_VEHTYPE" speedFactor="0.92" vaporized=""/>
    <tripinfo id="128" depart="272.00" departLane="-218680176#1_0" departPos="5.10" departSpeed="0.00" departDelay="0.94" arrival="332.00" arrivalLane="153964138#0_2" arrivalPos="337.99" arrivalSpeed="16.80" duration="60.00" routeLength="462.27" waitingTime="19.00" waitingCount="1" stopTime="0.00" timeLoss="31.07" rerouteNo="0" devices="tripinfo_128" vType="DEFAULT_VEHTYPE" speedFactor="1.02" vaporized=""/>
    <tripinfo id="120" depart="255.00" departLane="-661251539_0" departPos="5.10" departSpeed="0.00" departDelay="0.88" arrival="333.00" arrivalLane="226276377#0_0" arrivalPos="135.52" arrivalSpeed="10.67" duration="78.00" routeLength="783.10" waitingTime="0.00" waitingCount="0" stopTime="0.00" timeLoss="9.65" rerouteNo="0" devices="tripinfo_120" vType="DEFAULT_VEHTYPE" speedFactor="0.80" vaporized=""/>
    <tripinfo id="19" depart="42.00" departLane="978867529_0" departPos="5.10" departSpeed="0.00" departDelay="1.76" arrival="335.00" arrivalLane="226276377#0_0" arrivalPos="135.52" arrivalSpeed="12.57" duration="293.00" routeLength="1369.55" waitingTime="176.00" waitingCount="2" stopTime="0.00" timeLoss="198.22" rerouteNo="0" devices="tripinfo_19" vType="DEFAULT_VEHTYPE" speedFactor="0.95" vaporized=""/>
    <tripinfo id="18" depart="39.00" departLane="978867529_0" departPos="5.10" departSpeed="0.00" departDelay="0.88" arrival="337.00" arrivalLane="226276377#0_0" arrivalPos="135.52" arrivalSpeed="12.33" duration="298.00" routeLength="1369.55" waitingTime="179.00" waitingCount="2" stopTime="0.00" timeLoss="200.04" rerouteNo="0" devices="tripinfo_18" vType="DEFAULT_VEHTYPE" speedFactor="0.91" vaporized=""/>
    <tripinfo id="71" depart="151.00" departLane="-231177697#2_0" departPos="5.10" departSpeed="0.00" departDelay="0.65" arrival="337.00" arrivalLane="39907424_0" arrivalPos="316.44" arrivalSpeed="10.79" duration="186.00" routeLength="961.15" waitingTime="88.00" waitingCount="2" stopTime="0.00" timeLoss="106.36" rerouteNo="0" devices="tripinfo_71" vType="DEFAULT_VEHTYPE" speedFactor="0.86" vaporized=""/>
    <tripinfo id="99" depart="210.00" departLane="E8_0" departPos="5.10" departSpeed="0.00" departDelay="0.35" arrival="343.00" arrivalLane="39907424_0" arrivalPos="316.44" arrivalSpeed="13.73" duration="133.00" routeLength="1303.68" waitingTime="30.00" waitingCount="2" stopTime="0.00" timeLoss="48.43" rerouteNo="0" devices="tripinfo_99" vType="DEFAULT_VEHTYPE" speedFactor="1.08" vaporized=""/>
    <tripinfo id="123" depart="261.00" departLane="-231177697#2_0" departPos="5.10" departSpeed="0.00" departDelay="0.53" arrival="347.00" arrivalLane="210831347#0_0" arrivalPos="149.88" arrivalSpeed="14.92" duration="86.00" routeLength="557.56" waitingTime="34.00" waitingCount="1" stopTime="0.00" timeLoss="47.29" rerouteNo="0" devices="tripinfo_123" vType="DEFAULT_VEHTYPE" speedFactor="1.08" vaporized=""/>
    <tripinfo id="109" depart="231.00" departLane="-226276377#1_0" departPos="5.10" departSpeed="0.00" departDelay="0.18" arrival="351.00" arrivalLane="210831345#1_0" arrivalPos="264.29" arrivalSpeed="12.69" duration="120.00" routeLength="977.93" waitingTime="33.00" waitingCount="2" stopTime="0.00" timeLoss="51.62" rerouteNo="0" devices="tripinfo_109" vType="DEFAULT_VEHTYPE" speedFactor="0.99" vaporized=""/>
    <tripinfo id="118" depart="250.00" departLane="E8_0" departPos="5.10" departSpeed="0.00" departDelay="0.12" arrival="358.00" arrivalLane="210831345#1_0" arrivalPos="264.29" arrivalSpeed="13.67" duration="108.00" routeLength="1456.58" waitingTime="0.00" waitingCount="0" stopTime="0.00" timeLoss="10.98" rerouteNo="0" devices="tripinfo_118" vType="DEFAULT_VEHTYPE" speedFactor="1.05" vaporized=""/>
    <tripinfo id="105" depart="223.00" departLane="-231177697#2_0" departPos="5.10" departSpeed="0.00" departDelay="0.65" arrival="374.00" arrivalLane="39907424_0" arrivalPos="316.44" arrivalSpeed="13.77" duration="151.00" routeLength="961.15" waitingTime="70.00" waitingCount="1" stopTime="0.00" timeLoss="85.99" rerouteNo="0" devices="tripinfo_105" vType="DEFAULT_VEHTYPE" speedFactor="1.04" vaporized=""/>
    <tripinfo id="121" depart="257.00" departLane="256961141#0_0" departPos="5.10" departSpeed="0.00" departDelay="0.76" arrival="375.00" arrivalLane="450554042#0_0" arrivalPos="622.66" arrivalSpeed="15.32" duration="118.00" routeLength="853.74" waitingTime="48.00" waitingCount="1" stopTime="0.00" timeLoss="58.62" rerouteNo="0" devices="tripinfo_121" vType="DEFAULT_VEHTYPE" speedFactor="0.92" vaporized=""/>
    <tripinfo id="130" depart="276.00" departLane="978867529_0" departPos="5.10" departSpeed="0.00" departDelay="0.71" arrival="376.00" arrivalLane="39907424_0" arrivalPos="316.44" arrivalSpeed="16.28" duration="100.00" routeLength="1216.15" waitingTime="7.00" waitingCount="1" stopTime="0.00" timeLoss="31.18" rerouteNo="0" devices="tripinfo_130" vType="DEFAULT_VEHTYPE" speedFactor="1.20" vaporized=""/>
    <tripinfo id="142" depart="301.00" departLane="256961141#0_0" departPos="5.10" departSpeed="0.00" departDelay="0.29" arrival="378.00" arrivalLane="450554042#0_0" arrivalPos="622.66" arrivalSpeed="14.17" duration="77.00" routeLength="853.74" waitingTime="6.00" waitingCount="1" stopTime="0.00" timeLoss="17.47" rerouteNo="0" devices="tripinfo_142" vType="DEFAULT_VEHTYPE" speedFactor="0.92" vaporized=""/>
    <tripinfo id="146" depart="310.00" departLane="65746828#0_0" departPos="5.10" departSpeed="0.00" departDelay="0.82" arrival="382.00" arrivalLane="210831345#1_1" arrivalPos="264.29" arrivalSpeed="14.65" duration="72.00" routeLength="446.75" waitingTime="26.00" waitingCount="2" stopTime="0.00" timeLoss="42.83" rerouteNo="0" devices="tripinfo_146" vType="DEFAULT_VEHTYPE" speedFactor="1.12" vaporized=""/>