<?xml version="1.0" encoding="UTF-8"?>

<!-- generated on 2024-09-03 02:45:47 by Eclipse SUMO sumo Version 1.20.0
<configuration xmlns:xsi="http://www.w3.org/2001/XMLSchema-instance" xsi:noNamespaceSchemaLocation="http://sumo.dlr.de/xsd/sumoConfiguration.xsd">

    <input>
        <net-file value="c:\self\School\Master\Disertation\code\RESCO\resco_benchmark\environments/unirii/osm.net.xml.gz"/>
        <route-files value="c:\self\School\Master\Disertation\code\RESCO\resco_benchmark\environments/unirii/osm.passenger.trips.xml"/>
        <additional-files value="c:\self\School\Master\Disertation\code\RESCO\resco_benchmark\environments/unirii/osm.poly.xml.gz"/>
    </input>

    <output>
        <tripinfo-output value="C:\self\School\Master\Disertation\code\RESCO\results\IA2C-tr0-unirii-0-drq_norm-wait_norm\tripinfo_52.xml"/>
        <tripinfo-output.write-unfinished value="true"/>
    </output>

    <processing>
        <ignore-route-errors value="true"/>
        <time-to-teleport value="-1"/>
    </processing>

    <routing>
        <device.rerouting.adaptation-steps value="18"/>
        <device.rerouting.adaptation-interval value="10"/>
    </routing>

    <report>
        <verbose value="true"/>
        <no-warnings value="True"/>
        <duration-log.statistics value="true"/>
        <no-step-log value="True"/>
    </report>

    <traci_server>
        <remote-port value="52348"/>
    </traci_server>

    <random_number>
        <random value="true"/>
    </random_number>

    <gui_only>
        <gui-settings-file value="c:\self\School\Master\Disertation\code\RESCO\resco_benchmark\environments/unirii/osm.view.xml"/>
    </gui_only>

</configuration>
-->

<tripinfos xmlns:xsi="http://www.w3.org/2001/XMLSchema-instance" xsi:noNamespaceSchemaLocation="http://sumo.dlr.de/xsd/tripinfo_file.xsd">
    <tripinfo id="4" depart="9.00" departLane="-661251539_0" departPos="5.10" departSpeed="0.00" departDelay="0.53" arrival="80.00" arrivalLane="-256961141#1_1" arrivalPos="204.72" arrivalSpeed="13.48" duration="71.00" routeLength="872.91" waitingTime="0.00" waitingCount="0" stopTime="0.00" timeLoss="8.51" rerouteNo="0" devices="tripinfo_4" vType="DEFAULT_VEHTYPE" speedFactor="0.97" vaporized=""/>
    <tripinfo id="2" depart="5.00" departLane="666135205#0_0" departPos="5.10" departSpeed="0.00" departDelay="0.76" arrival="113.00" arrivalLane="231177697#0_0" arrivalPos="74.44" arrivalSpeed="13.05" duration="108.00" routeLength="649.17" waitingTime="43.00" waitingCount="2" stopTime="0.00" timeLoss="60.51" rerouteNo="0" devices="tripinfo_2" vType="DEFAULT_VEHTYPE" speedFactor="1.03" vaporized=""/>
    <tripinfo id="35" depart="75.00" departLane="-226276377#1_0" departPos="5.10" departSpeed="0.00" departDelay="0.88" arrival="125.00" arrivalLane="450554042#0_0" arrivalPos="622.66" arrivalSpeed="18.57" duration="50.00" routeLength="763.53" waitingTime="0.00" waitingCount="0" stopTime="0.00" timeLoss="7.09" rerouteNo="0" devices="tripinfo_35" vType="DEFAULT_VEHTYPE" speedFactor="1.13" vaporized=""/>
    <tripinfo id="7" depart="15.00" departLane="65746828#0_0" departPos="5.10" departSpeed="0.00" departDelay="0.18" arrival="139.00" arrivalLane="218680176#0_1" arrivalPos="98.94" arrivalSpeed="14.40" duration="124.00" routeLength="602.71" waitingTime="73.00" waitingCount="1" stopTime="0.00" timeLoss="84.83" rerouteNo="0" devices="tripinfo_7" vType="DEFAULT_VEHTYPE" speedFactor="1.12" vaporized=""/>
    <tripinfo id="10" depart="23.00" departLane="978867529_0" departPos="5.10" departSpeed="0.00" departDelay="1.82" arrival="140.00" arrivalLane="231177697#0_1" arrivalPos="74.44" arrivalSpeed="11.70" duration="117.00" routeLength="437.06" waitingTime="74.00" waitingCount="1" stopTime="0.00" timeLoss="84.69" rerouteNo="0" devices="tripinfo_10" vType="DEFAULT_VEHTYPE" speedFactor="0.90" vaporized=""/>
    <tripinfo id="15" depart="33.00" departLane="978867529_0" departPos="5.10" departSpeed="0.00" departDelay="1.24" arrival="142.00" arrivalLane="231177697#0_1" arrivalPos="74.44" arrivalSpeed="10.96" duration="109.00" routeLength="437.06" waitingTime="65.00" waitingCount="1" stopTime="0.00" timeLoss="75.62" rerouteNo="0" devices="tripinfo_15" vType="DEFAULT_VEHTYPE" speedFactor="0.85" vaporized=""/>
    <tripinfo id="27" depart="58.00" departLane="65746828#0_0" departPos="5.10" departSpeed="0.00" departDelay="0.82" arrival="142.00" arrivalLane="226276377#0_0" arrivalPos="135.52" arrivalSpeed="13.76" duration="84.00" routeLength="841.69" waitingTime="11.00" waitingCount="1" stopTime="0.00" timeLoss="28.51" rerouteNo="0" devices="tripinfo_27" vType="DEFAULT_VEHTYPE" speedFactor="1.03" vaporized=""/>
    <tripinfo id="32" depart="68.00" departLane="978867529_0" departPos="5.10" departSpeed="0.00" departDelay="0.24" arrival="144.00" arrivalLane="231177697#0_1" arrivalPos="74.44" arrivalSpeed="12.66" duration="76.00" routeLength="437.06" waitingTime="34.00" waitingCount="1" stopTime="0.00" timeLoss="45.39" rerouteNo="0" devices="tripinfo_32" vType="DEFAULT_VEHTYPE" speedFactor="0.95" vaporized=""/>
    <tripinfo id="3" depart="7.00" departLane="E8_0" departPos="5.10" departSpeed="0.00" departDelay="0.65" arrival="147.00" arrivalLane="-256961141#1_0" arrivalPos="204.72" arrivalSpeed="12.51" duration="140.00" routeLength="832.89" waitingTime="66.00" waitingCount="1" stopTime="0.00" timeLoss="76.20" rerouteNo="0" devices="tripinfo_3" vType="DEFAULT_VEHTYPE" speedFactor="0.95" vaporized=""/>
    <tripinfo id="46" depart="98.00" departLane="978867529_0" departPos="5.10" departSpeed="0.00" departDelay="0.59" arrival="167.00" arrivalLane="210831347#0_0" arrivalPos="149.88" arrivalSpeed="11.35" duration="69.00" routeLength="812.56" waitingTime="0.00" waitingCount="0" stopTime="0.00" timeLoss="7.48" rerouteNo="0" devices="tripinfo_46" vType="DEFAULT_VEHTYPE" speedFactor="0.91" vaporized=""/>
    <tripinfo id="17" depart="36.00" departLane="-661251539_0" departPos="5.10" departSpeed="0.00" departDelay="0.00" arrival="168.00" arrivalLane="218680176#0_1" arrivalPos="98.94" arrivalSpeed="12.45" duration="132.00" routeLength="1001.21" waitingTime="38.00" waitingCount="1" stopTime="0.00" timeLoss="52.40" rerouteNo="0" devices="tripinfo_17" vType="DEFAULT_VEHTYPE" speedFactor="0.92" vaporized=""/>
    <tripinfo id="18" depart="39.00" departLane="978867529_0" departPos="5.10" departSpeed="0.00" departDelay="0.88" arrival="183.00" arrivalLane="226276377#0_0" arrivalPos="135.52" arrivalSpeed="12.29" duration="144.00" routeLength="1369.55" waitingTime="34.00" waitingCount="1" stopTime="0.00" timeLoss="48.95" rerouteNo="0" devices="tripinfo_18" vType="DEFAULT_VEHTYPE" speedFactor="0.94" vaporized=""/>
    <tripinfo id="14" depart="30.00" departLane="978867529_0" departPos="5.10" departSpeed="0.00" departDelay="0.35" arrival="185.00" arrivalLane="226276377#0_0" arrivalPos="135.52" arrivalSpeed="13.44" duration="155.00" routeLength="1369.55" waitingTime="44.00" waitingCount="1" stopTime="0.00" timeLoss="62.73" rerouteNo="0" devices="tripinfo_14" vType="DEFAULT_VEHTYPE" speedFactor="0.97" vaporized=""/>
    <tripinfo id="31" depart="66.00" departLane="65746828#0_0" departPos="5.10" departSpeed="0.00" departDelay="0.35" arrival="187.00" arrivalLane="231177697#0_0" arrivalPos="74.44" arrivalSpeed="13.65" duration="121.00" routeLength="558.79" waitingTime="64.00" waitingCount="2" stopTime="0.00" timeLoss="80.69" rerouteNo="0" devices="tripinfo_31" vType="DEFAULT_VEHTYPE" speedFactor="1.04" vaporized=""/>
    <tripinfo id="61" depart="130.00" departLane="978867529_0" departPos="5.10" departSpeed="0.00" departDelay="0.82" arrival="189.00" arrivalLane="218680176#0_0" arrivalPos="98.94" arrivalSpeed="12.26" duration="59.00" routeLength="442.15" waitingTime="18.00" waitingCount="1" stopTime="0.00" timeLoss="28.86" rerouteNo="0" devices="tripinfo_61" vType="DEFAULT_VEHTYPE" speedFactor="0.97" vaporized=""/>
    <tripinfo id="12" depart="26.00" departLane="E8_0" departPos="5.10" departSpeed="0.00" departDelay="0.59" arrival="194.00" arrivalLane="210831347#0_1" arrivalPos="149.88" arrivalSpeed="14.56" duration="168.00" routeLength="1367.17" waitingTime="61.00" waitingCount="2" stopTime="0.00" timeLoss="80.14" rerouteNo="0" devices="tripinfo_12" vType="DEFAULT_VEHTYPE" speedFactor="1.09" vaporized=""/>
    <tripinfo id="22" depart="47.00" departLane="-218680176#1_0" departPos="5.10" departSpeed="0.00" departDelay="0.41" arrival="201.00" arrivalLane="210831345#1_1" arrivalPos="264.29" arrivalSpeed="14.29" duration="154.00" routeLength="699.94" waitingTime="89.00" waitingCount="2" stopTime="0.00" timeLoss="106.51" rerouteNo="0" devices="tripinfo_22" vType="DEFAULT_VEHTYPE" speedFactor="1.09" vaporized=""/>
    <tripinfo id="11" depart="24.00" departLane="-661251539_0" departPos="5.10" departSpeed="0.00" departDelay="0.71" arrival="203.00" arrivalLane="153964138#0_1" arrivalPos="337.99" arrivalSpeed="16.57" duration="179.00" routeLength="1239.04" waitingTime="72.00" waitingCount="2" stopTime="0.00" timeLoss="93.77" rerouteNo="0" devices="tripinfo_11" vType="DEFAULT_VEHTYPE" speedFactor="1.00" vaporized=""/>
    <tripinfo id="23" depart="50.00" departLane="-218680176#1_0" departPos="5.10" departSpeed="0.00" departDelay="1.29" arrival="203.00" arrivalLane="210831345#1_1" arrivalPos="264.29" arrivalSpeed="16.15" duration="153.00" routeLength="699.94" waitingTime="87.00" waitingCount="2" stopTime="0.00" timeLoss="108.68" rerouteNo="0" devices="tripinfo_23" vType="DEFAULT_VEHTYPE" speedFactor="1.17" vaporized=""/>
    <tripinfo id="42" depart="89.00" departLane="-661251539_0" departPos="5.10" departSpeed="0.00" departDelay="0.06" arrival="204.00" arrivalLane="153964138#0_2" arrivalPos="337.99" arrivalSpeed="15.65" duration="115.00" routeLength="1239.04" waitingTime="12.00" waitingCount="1" stopTime="0.00" timeLoss="27.18" rerouteNo="0" devices="tripinfo_42" vType="DEFAULT_VEHTYPE" speedFactor="0.98" vaporized=""/>
    <tripinfo id="25" depart="53.00" departLane="-661251539_0" departPos="5.10" departSpeed="0.00" departDelay="0.06" arrival="205.00" arrivalLane="153964138#0_0" arrivalPos="337.99" arrivalSpeed="16.56" duration="152.00" routeLength="1239.04" waitingTime="47.00" waitingCount="2" stopTime="0.00" timeLoss="66.54" rerouteNo="0" devices="tripinfo_25" vType="DEFAULT_VEHTYPE" speedFactor="1.00" vaporized=""/>
    <tripinfo id="36" depart="77.00" departLane="978867529_0" departPos="5.10" departSpeed="0.00" departDelay="0.76" arrival="208.00" arrivalLane="210831345#1_1" arrivalPos="264.29" arrivalSpeed="12.71" duration="131.00" routeLength="951.92" waitingTime="50.00" waitingCount="1" stopTime="0.00" timeLoss="62.77" rerouteNo="0" devices="tripinfo_36" vType="DEFAULT_VEHTYPE" speedFactor="0.97" vaporized=""/>
    <tripinfo id="19" depart="42.00" departLane="978867529_0" departPos="5.10" departSpeed="0.00" departDelay="1.76" arrival="217.00" arrivalLane="226276377#0_0" arrivalPos="135.52" arrivalSpeed="12.89" duration="175.00" routeLength="1369.55" waitingTime="61.00" waitingCount="2" stopTime="0.00" timeLoss="84.91" rerouteNo="0" devices="tripinfo_19" vType="DEFAULT_VEHTYPE" speedFactor="1.00" vaporized=""/>
    <tripinfo id="16" depart="34.00" departLane="256961141#0_0" departPos="5.10" departSpeed="0.00" departDelay="0.12" arrival="220.00" arrivalLane="450554042#0_1" arrivalPos="622.66" arrivalSpeed="17.41" duration="186.00" routeLength="853.74" waitingTime="123.00" waitingCount="1" stopTime="0.00" timeLoss="134.53" rerouteNo="0" devices="tripinfo_16" vType="DEFAULT_VEHTYPE" speedFactor="1.06" vaporized=""/>
    <tripinfo id="54" depart="115.00" departLane="256961141#0_0" departPos="5.10" departSpeed="0.00" departDelay="0.65" arrival="220.00" arrivalLane="450554042#0_2" arrivalPos="622.66" arrivalSpeed="18.87" duration="105.00" routeLength="853.74" waitingTime="44.00" waitingCount="1" stopTime="0.00" timeLoss="57.57" rerouteNo="0" devices="tripinfo_54" vType="DEFAULT_VEHTYPE" speedFactor="1.16" vaporized=""/>
    <tripinfo id="49" depart="105.00" departLane="E8_0" departPos="5.10" departSpeed="0.00" departDelay="1.24" arrival="221.00" arrivalLane="39907424_0" arrivalPos="316.44" arrivalSpeed="10.79" duration="116.00" routeLength="1303.68" waitingTime="0.00" waitingCount="0" stopTime="0.00" timeLoss="11.13" rerouteNo="0" devices="tripinfo_49" vType="DEFAULT_VEHTYPE" speedFactor="0.86" vaporized=""/>
    <tripinfo id="57" depart="121.00" departLane="E8_0" departPos="5.10" departSpeed="0.00" departDelay="0.29" arrival="223.00" arrivalLane="39907424_0" arrivalPos="316.44" arrivalSpeed="14.28" duration="102.00" routeLength="1303.68" waitingTime="0.00" waitingCount="0" stopTime="0.00" timeLoss="17.23" rerouteNo="0" devices="tripinfo_57" vType="DEFAULT_VEHTYPE" speedFactor="1.07" vaporized=""/>
    <tripinfo id="55" depart="117.00" departLane="978867529_0" departPos="5.10" departSpeed="0.00" departDelay="0.53" arrival="224.00" arrivalLane="210831345#1_1" arrivalPos="264.29" arrivalSpeed="15.23" duration="107.00" routeLength="951.92" waitingTime="34.00" waitingCount="1" stopTime="0.00" timeLoss="47.32" rerouteNo="0" devices="tripinfo_55" vType="DEFAULT_VEHTYPE" speedFactor="1.10" vaporized=""/>
    <tripinfo id="40" depart="85.00" departLane="65746828#0_0" departPos="5.10" departSpeed="0.00" departDelay="0.29" arrival="228.00" arrivalLane="210831345#1_0" arrivalPos="264.29" arrivalSpeed="10.28" duration="143.00" routeLength="446.75" waitingTime="93.00" waitingCount="1" stopTime="0.00" timeLoss="102.81" rerouteNo="0" devices="tripinfo_40" vType="DEFAULT_VEHTYPE" speedFactor="0.81" vaporized=""/>
    <tripinfo id="51" depart="108.00" departLane="666135205#0_0" departPos="5.10" departSpeed="0.00" departDelay="0.00" arrival="240.00" arrivalLane="218680176#0_1" arrivalPos="98.94" arrivalSpeed="15.62" duration="132.00" routeLength="693.09" waitingTime="71.00" waitingCount="2" stopTime="0.00" timeLoss="87.66" rerouteNo="0" devices="tripinfo_51" vType="DEFAULT_VEHTYPE" speedFactor="1.17" vaporized=""/>
    <tripinfo id="74" depart="157.00" departLane="-226276377#1_0" departPos="5.10" departSpeed="0.00" departDelay="0.29" arrival="259.00" arrivalLane="210831345#1_0" arrivalPos="264.29" arrivalSpeed="13.58" duration="102.00" routeLength="977.93" waitingTime="11.00" waitingCount="2" stopTime="0.00" timeLoss="34.63" rerouteNo="0" devices="tripinfo_74" vType="DEFAULT_VEHTYPE" speedFactor="1.01" vaporized=""/>
    <tripinfo id="77" depart="164.00" departLane="-226276377#1_0" departPos="5.10" departSpeed="0.00" departDelay="0.94" arrival="263.00" arrivalLane="210831345#1_0" arrivalPos="264.29" arrivalSpeed="13.33" duration="99.00" routeLength="977.93" waitingTime="5.00" waitingCount="1" stopTime="0.00" timeLoss="27.70" rerouteNo="0" devices="tripinfo_77" vType="DEFAULT_VEHTYPE" speedFactor="0.96" vaporized=""/>
    <tripinfo id="60" depart="128.00" departLane="666135205#0_0" departPos="5.10" departSpeed="0.00" departDelay="0.94" arrival="266.00" arrivalLane="218680176#0_1" arrivalPos="98.94" arrivalSpeed="11.65" duration="138.00" routeLength="693.09" waitingTime="63.00" waitingCount="2" stopTime="0.00" timeLoss="81.78" rerouteNo="0" devices="tripinfo_60" vType="DEFAULT_VEHTYPE" speedFactor="0.91" vaporized=""/>
    <tripinfo id="43" depart="92.00" departLane="E8_0" departPos="5.10" departSpeed="0.00" departDelay="0.94" arrival="267.00" arrivalLane="218680176#0_1" arrivalPos="98.94" arrivalSpeed="13.44" duration="175.00" routeLength="1637.20" waitingTime="44.00" waitingCount="1" stopTime="0.00" timeLoss="65.25" rerouteNo="0" devices="tripinfo_43" vType="DEFAULT_VEHTYPE" speedFactor="1.04" vaporized=""/>
    <tripinfo id="78" depart="166.00" departLane="-661251539_0" departPos="5.10" departSpeed="0.00" departDelay="0.82" arrival="267.00" arrivalLane="226276377#0_0" arrivalPos="135.52" arrivalSpeed="12.53" duration="101.00" routeLength="783.10" waitingTime="25.00" waitingCount="2" stopTime="0.00" timeLoss="41.24" rerouteNo="0" devices="tripinfo_78" vType="DEFAULT_VEHTYPE" speedFactor="0.91" vaporized=""/>
    <tripinfo id="95" depart="202.00" departLane="-661251539_0" departPos="5.10" departSpeed="0.00" departDelay="0.82" arrival="267.00" arrivalLane="210831345#1_0" arrivalPos="264.29" arrivalSpeed="15.32" duration="65.00" routeLength="826.64" waitingTime="0.00" waitingCount="0" stopTime="0.00" timeLoss="11.42" rerouteNo="0" devices="tripinfo_95" vType="DEFAULT_VEHTYPE" speedFactor="1.14" vaporized=""/>
    <tripinfo id="48" depart="102.00" departLane="E8_0" departPos="5.10" departSpeed="0.00" departDelay="0.35" arrival="269.00" arrivalLane="218680176#0_1" arrivalPos="98.94" arrivalSpeed="13.17" duration="167.00" routeLength="1637.20" waitingTime="32.00" waitingCount="1" stopTime="0.00" timeLoss="50.50" rerouteNo="0" devices="tripinfo_48" vType="DEFAULT_VEHTYPE" speedFactor="0.98" vaporized=""/>
    <tripinfo id="91" depart="193.00" departLane="E8_0" departPos="5.10" departSpeed="0.00" departDelay="0.29" arrival="271.00" arrivalLane="-256961141#1_0" arrivalPos="204.72" arrivalSpeed="14.13" duration="78.00" routeLength="832.89" waitingTime="9.00" waitingCount="1" stopTime="0.00" timeLoss="20.42" rerouteNo="0" devices="tripinfo_91" vType="DEFAULT_VEHTYPE" speedFactor="1.07" vaporized=""/>
    <tripinfo id="38" depart="81.00" departLane="E8_0" departPos="5.10" departSpeed="0.00" departDelay="0.53" arrival="272.00" arrivalLane="218680176#0_1" arrivalPos="98.94" arrivalSpeed="11.38" duration="191.00" routeLength="1637.20" waitingTime="44.00" waitingCount="1" stopTime="0.00" timeLoss="62.66" rerouteNo="0" devices="tripinfo_38" vType="DEFAULT_VEHTYPE" speedFactor="0.89" vaporized=""/>
    <tripinfo id="5" depart="11.00" departLane="-226276377#1_0" departPos="5.10" departSpeed="0.00" departDelay="0.41" arrival="274.00" arrivalLane="218680176#0_1" arrivalPos="98.94" arrivalSpeed="14.46" duration="263.00" routeLength="1158.55" waitingTime="161.00" waitingCount="2" stopTime="0.00" timeLoss="190.04" rerouteNo="0" devices="tripinfo_5" vType="DEFAULT_VEHTYPE" speedFactor="1.11" vaporized=""/>
    <tripinfo id="64" depart="136.00" departLane="978867529_0" departPos="5.10" departSpeed="0.00" departDelay="0.47" arrival="274.00" arrivalLane="39907424_0" arrivalPos="316.44" arrivalSpeed="12.98" duration="138.00" routeLength="1216.15" waitingTime="29.00" waitingCount="2" stopTime="0.00" timeLoss="53.62" rerouteNo="0" devices="tripinfo_64" vType="DEFAULT_VEHTYPE" speedFactor="0.98" vaporized=""/>
    <tripinfo id="76" depart="161.00" departLane="-661251539_0" departPos="5.10" departSpeed="0.00" departDelay="0.06" arrival="276.00" arrivalLane="218680176#0_1" arrivalPos="98.94" arrivalSpeed="11.80" duration="115.00" routeLength="1001.21" waitingTime="23.00" waitingCount="1" stopTime="0.00" timeLoss="36.03" rerouteNo="0" devices="tripinfo_76" vType="DEFAULT_VEHTYPE" speedFactor="0.93" vaporized=""/>
    <tripinfo id="50" depart="106.00" departLane="-218680176#1_0" departPos="5.10" departSpeed="0.00" departDelay="0.12" arrival="284.00" arrivalLane="231177697#0_0" arrivalPos="74.44" arrivalSpeed="13.58" duration="178.00" routeLength="205.97" waitingTime="142.00" waitingCount="4" stopTime="0.00" timeLoss="163.11" rerouteNo="0" devices="tripinfo_50" vType="DEFAULT_VEHTYPE" speedFactor="1.00" vaporized=""/>
    <tripinfo id="45" depart="97.00" departLane="-218680176#1_0" departPos="5.10" departSpeed="0.00" departDelay="1.71" arrival="289.00" arrivalLane="226276377#0_0" arrivalPos="135.52" arrivalSpeed="11.24" duration="192.00" routeLength="1117.57" waitingTime="81.00" waitingCount="3" stopTime="0.00" timeLoss="102.51" rerouteNo="0" devices="tripinfo_45" vType="DEFAULT_VEHTYPE" speedFactor="0.85" vaporized=""/>
    <tripinfo id="68" depart="144.00" departLane="-218680176#1_0" departPos="5.10" departSpeed="0.00" departDelay="0.00" arrival="290.00" arrivalLane="231177697#0_0" arrivalPos="74.44" arrivalSpeed="15.37" duration="146.00" routeLength="205.97" waitingTime="103.00" waitingCount="3" stopTime="0.00" timeLoss="132.79" rerouteNo="0" devices="tripinfo_68" vType="DEFAULT_VEHTYPE" speedFactor="1.13" vaporized=""/>
    <tripinfo id="86" depart="183.00" departLane="256961141#0_0" departPos="5.10" departSpeed="0.00" departDelay="0.88" arrival="295.00" arrivalLane="39907424_0" arrivalPos="316.44" arrivalSpeed="11.26" duration="112.00" routeLength="873.95" waitingTime="27.00" waitingCount="1" stopTime="0.00" timeLoss="40.96" rerouteNo="0" devices="tripinfo_86" vType="DEFAULT_VEHTYPE" speedFactor="0.86" vaporized=""/>
    <tripinfo id="41" depart="88.00" departLane="65746828#0_0" departPos="5.10" departSpeed="0.00" departDelay="1.18" arrival="301.00" arrivalLane="450554042#0_0" arrivalPos="622.66" arrivalSpeed="16.70" duration="213.00" routeLength="1340.72" waitingTime="112.00" waitingCount="2" stopTime="0.00" timeLoss="130.39" rerouteNo="0" devices="tripinfo_41" vType="DEFAULT_VEHTYPE" speedFactor="1.02" vaporized=""/>
    <tripinfo id="66" depart="140.00" departLane="978867529_0" departPos="5.10" departSpeed="0.00" departDelay="0.24" arrival="301.00" arrivalLane="450554042#0_1" arrivalPos="622.66" arrivalSpeed="17.17" duration="161.00" routeLength="1868.58" waitingTime="31.00" waitingCount="2" stopTime="0.00" timeLoss="53.23" rerouteNo="0" devices="tripinfo_66" vType="DEFAULT_VEHTYPE" speedFactor="1.09" vaporized=""/>
    <tripinfo id="104" depart="222.00" departLane="-661251539_0" departPos="5.10" departSpeed="0.00" departDelay="1.76" arrival="306.00" arrivalLane="450554042#0_0" arrivalPos="622.66" arrivalSpeed="17.32" duration="84.00" routeLength="1282.13" waitingTime="0.00" waitingCount="0" stopTime="0.00" timeLoss="8.64" rerouteNo="0" devices="tripinfo_104" vType="DEFAULT_VEHTYPE" speedFactor="1.08" vaporized=""/>
    <tripinfo id="99" depart="210.00" departLane="E8_0" departPos="5.10" departSpeed="0.00" departDelay="0.35" arrival="313.00" arrivalLane="39907424_0" arrivalPos="316.44" arrivalSpeed="13.14" duration="103.00" routeLength="1303.68" waitingTime="0.00" waitingCount="0" stopTime="0.00" timeLoss="11.23" rerouteNo="0" devices="tripinfo_99" vType="DEFAULT_VEHTYPE" speedFactor="0.99" vaporized=""/>
    <tripinfo id="30" depart="64.00" departLane="E8_0" departPos="5.10" departSpeed="0.00" departDelay="0.47" arrival="317.00" arrivalLane="226276377#0_1" arrivalPos="135.52" arrivalSpeed="14.97" duration="253.00" routeLength="784.51" waitingTime="191.00" waitingCount="1" stopTime="0.00" timeLoss="200.99" rerouteNo="0" devices="tripinfo_30" vType="DEFAULT_VEHTYPE" speedFactor="1.11" vaporized=""/>
    <tripinfo id="121" depart="257.00" departLane="256961141#0_0" departPos="5.10" departSpeed="0.00" departDelay="0.76" arrival="319.00" arrivalLane="450554042#0_1" arrivalPos="622.66" arrivalSpeed="17.67" duration="62.00" routeLength="853.74" waitingTime="1.00" waitingCount="1" stopTime="0.00" timeLoss="11.44" rerouteNo="0" devices="tripinfo_121" vType="DEFAULT_VEHTYPE" speedFactor="1.09" vaporized=""/>
    <tripinfo id="0" depart="0.00" departLane="65746828#0_0" departPos="5.10" departSpeed="0.00" departDelay="0.00" arrival="321.00" arrivalLane="-256961141#1_1" arrivalPos="204.72" arrivalSpeed="15.32" duration="321.00" routeLength="931.50" waitingTime="249.00" waitingCount="2" stopTime="0.00" timeLoss="267.95" rerouteNo="0" devices="tripinfo_0" vType="DEFAULT_VEHTYPE" speedFactor="1.18" vaporized=""/>
    <tripinfo id="75" depart="159.00" departLane="E8_0" departPos="5.10" departSpeed="0.00" departDelay="0.18" arrival="322.00" arrivalLane="226276377#0_1" arrivalPos="135.52" arrivalSpeed="11.16" duration="163.00" routeLength="784.51" waitingTime="83.00" waitingCount="1" stopTime="0.00" timeLoss="93.75" rerouteNo="0" devices="tripinfo_75" vType="DEFAULT_VEHTYPE" speedFactor="0.82" vaporized=""/>
    <tripinfo id="85" depart="180.00" departLane="E8_0" departPos="5.10" departSpeed="0.00" departDelay="0.00" arrival="324.00" arrivalLane="226276377#0_1" arrivalPos="135.52" arrivalSpeed="11.81" duration="144.00" routeLength="784.51" waitingTime="69.00" waitingCount="1" stopTime="0.00" timeLoss="81.48" rerouteNo="0" devices="tripinfo_85" vType="DEFAULT_VEHTYPE" speedFactor="0.91" vaporized=""/>
    <tripinfo id="20" depart="43.00" departLane="666135205#0_0" departPos="5.10" departSpeed="0.00" departDelay="0.65" arrival="326.00" arrivalLane="-256961141#1_1" arrivalPos="204.72" arrivalSpeed="13.07" duration="283.00" routeLength="1068.72" waitingTime="191.00" waitingCount="2" stopTime="0.00" timeLoss="207.27" rerouteNo="0" devices="tripinfo_20" vType="DEFAULT_VEHTYPE" speedFactor="0.96" vaporized=""/>
    <tripinfo id="110" depart="233.00" departLane="E8_0" departPos="5.10" departSpeed="0.00" departDelay="0.06" arrival="326.00" arrivalLane="226276377#0_1" arrivalPos="135.52" arrivalSpeed="15.57" duration="93.00" routeLength="784.51" waitingTime="26.00" waitingCount="1" stopTime="0.00" timeLoss="41.46" rerouteNo="0" devices="tripinfo_110" vType="DEFAULT_VEHTYPE" speedFactor="1.12" vaporized=""/>
    <tripinfo id="145" depart="308.00" departLane="-218680176#1_0" departPos="5.10" departSpeed="0.00" departDelay="0.94" arrival="327.00" arrivalLane="231177697#0_0" arrivalPos="74.44" arrivalSpeed="12.34" duration="19.00" routeLength="205.97" waitingTime="0.00" waitingCount="0" stopTime="0.00" timeLoss="3.50" rerouteNo="0" devices="tripinfo_145" vType="DEFAULT_VEHTYPE" speedFactor="0.97" vaporized=""/>
    <tripinfo id="9" depart="20.00" departLane="978867529_0" departPos="5.10" departSpeed="0.00" departDelay="0.94" arrival="332.00" arrivalLane="-256961141#1_1" arrivalPos="204.72" arrivalSpeed="10.18" duration="312.00" routeLength="1459.36" waitingTime="168.00" waitingCount="2" stopTime="0.00" timeLoss="188.37" rerouteNo="0" devices="tripinfo_9" vType="DEFAULT_VEHTYPE" speedFactor="0.78" vaporized=""/>
    <tripinfo id="13" depart="28.00" departLane="-218680176#1_0" departPos="5.10" departSpeed="0.00" departDelay="0.47" arrival="332.00" arrivalLane="-256961141#1_0" arrivalPos="204.72" arrivalSpeed="12.95" duration="304.00" routeLength="1207.38" waitingTime="184.00" waitingCount="3" stopTime="0.00" timeLoss="223.75" rerouteNo="0" devices="tripinfo_13" vType="DEFAULT_VEHTYPE" speedFactor="1.02" vaporized=""/>
    <tripinfo id="44" depart="94.00" departLane="-218680176#1_0" departPos="5.10" departSpeed="0.00" departDelay="0.82" arrival="334.00" arrivalLane="-256961141#1_1" arrivalPos="204.72" arrivalSpeed="12.97" duration="240.00" routeLength="1207.38" waitingTime="137.00" waitingCount="2" stopTime="0.00" timeLoss="160.15" rerouteNo="0" devices="tripinfo_44" vType="DEFAULT_VEHTYPE" speedFactor="1.03" vaporized=""/>
    <tripinfo id="103" depart="219.00" departLane="-661251539_0" departPos="5.10" departSpeed="0.00" departDelay="0.88" arrival="336.00" arrivalLane="-256961141#1_1" arrivalPos="204.72" arrivalSpeed="14.58" duration="117.00" routeLength="872.91" waitingTime="41.00" waitingCount="1" stopTime="0.00" timeLoss="62.54" rerouteNo="0" devices="tripinfo_103" vType="DEFAULT_VEHTYPE" speedFactor="1.14" vaporized=""/>
    <tripinfo id="82" depart="174.00" departLane="978867529_0" departPos="5.10" departSpeed="0.00" departDelay="0.35" arrival="337.00" arrivalLane="-256961141#1_1" arrivalPos="204.72" arrivalSpeed="14.20" duration="163.00" routeLength="1459.36" waitingTime="45.00" waitingCount="2" stopTime="0.00" timeLoss="72.17" rerouteNo="0" devices="tripinfo_82" vType="DEFAULT_VEHTYPE" speedFactor="1.06" vaporized=""/>
    <tripinfo id="132" depart="280.00" departLane="978867529_0" departPos="5.10" departSpeed="0.00" departDelay="0.47" arrival="338.00" arrivalLane="231177697#0_1" arrivalPos="74.44" arrivalSpeed="13.23" duration="58.00" routeLength="437.06" waitingTime="20.00" waitingCount="1" stopTime="0.00" timeLoss="30.58" rerouteNo="0" devices="tripinfo_132" vType="DEFAULT_VEHTYPE" speedFactor="1.05" vaporized=""/>
    <tripinfo id="89" depart="189.00" departLane="-661251539_0" departPos="5.10" departSpeed="0.00" departDelay="0.53" arrival="341.00" arrivalLane="218680176#0_1" arrivalPos="98.94" arrivalSpeed="12.05" duration="152.00" routeLength="1001.21" waitingTime="55.00" waitingCount="1" stopTime="0.00" timeLoss="69.94" rerouteNo="0" devices="tripinfo_89" vType="DEFAULT_VEHTYPE" speedFactor="0.90" vaporized=""/>
    <tripinfo id="70" depart="149.00" departLane="256961141#0_0" departPos="5.10" departSpeed="0.00" departDelay="0.76" arrival="342.00" arrivalLane="218680176#0_1" arrivalPos="98.94" arrivalSpeed="13.00" duration="193.00" routeLength="1207.47" waitingTime="97.00" waitingCount="2" stopTime="0.00" timeLoss="118.52" rerouteNo="0" devices="tripinfo_70" vType="DEFAULT_VEHTYPE" speedFactor="1.13" vaporized=""/>
    <tripinfo id="141" depart="299.00" departLane="65746828#0_0" departPos="5.10" departSpeed="0.00" departDelay="0.41" arrival="354.00" arrivalLane="210831345#1_0" arrivalPos="264.29" arrivalSpeed="15.25" duration="55.00" routeLength="446.75" waitingTime="16.00" waitingCount="1" stopTime="0.00" timeLoss="27.31" rerouteNo="0" devices="tripinfo_141" vType="DEFAULT_VEHTYPE" speedFactor="1.17" vaporized=""/>
    <tripinfo id="114" depart="242.00" departLane="-226276377#1_0" departPos="5.10" departSpeed="0.00" departDelay="0.59" arrival="364.00" arrivalLane="450554042#0_0" arrivalPos="622.66" arrivalSpeed="17.34" duration="122.00" routeLength="763.53" waitingTime="65.00" waitingCount="1" stopTime="0.00" timeLoss="75.40" rerouteNo="0" devices="tripinfo_114" vType="DEFAULT_VEHTYPE" speedFactor="1.04" vaporized=""/>
    <tripinfo id="146" depart="310.00" departLane="65746828#0_0" departPos="5.10" departSpeed="0.00" departDelay="0.82" arrival="364.00" arrivalLane="210831345#1_0" arrivalPos="264.29" arrivalSpeed="11.47" duration="54.00" routeLength="446.75" waitingTime="3.00" waitingCount="1" stopTime="0.00" timeLoss="14.81" rerouteNo="0" devices="tripinfo_146" vType="DEFAULT_VEHTYPE" speedFactor="0.84" vaporized=""/>