<?xml version="1.0" encoding="UTF-8"?>

<!-- generated on 2024-09-03 02:41:21 by Eclipse SUMO sumo Version 1.20.0
<configuration xmlns:xsi="http://www.w3.org/2001/XMLSchema-instance" xsi:noNamespaceSchemaLocation="http://sumo.dlr.de/xsd/sumoConfiguration.xsd">

    <input>
        <net-file value="c:\self\School\Master\Disertation\code\RESCO\resco_benchmark\environments/unirii/osm.net.xml.gz"/>
        <route-files value="c:\self\School\Master\Disertation\code\RESCO\resco_benchmark\environments/unirii/osm.passenger.trips.xml"/>
        <additional-files value="c:\self\School\Master\Disertation\code\RESCO\resco_benchmark\environments/unirii/osm.poly.xml.gz"/>
    </input>

    <output>
        <tripinfo-output value="C:\self\School\Master\Disertation\code\RESCO\results\IA2C-tr0-unirii-0-drq_norm-wait_norm\tripinfo_34.xml"/>
        <tripinfo-output.write-unfinished value="true"/>
    </output>

    <processing>
        <ignore-route-errors value="true"/>
        <time-to-teleport value="-1"/>
    </processing>

    <routing>
        <device.rerouting.adaptation-steps value="18"/>
        <device.rerouting.adaptation-interval value="10"/>
    </routing>

    <report>
        <verbose value="true"/>
        <no-warnings value="True"/>
        <duration-log.statistics value="true"/>
        <no-step-log value="True"/>
    </report>

    <traci_server>
        <remote-port value="52183"/>
    </traci_server>

    <random_number>
        <random value="true"/>
    </random_number>

    <gui_only>
        <gui-settings-file value="c:\self\School\Master\Disertation\code\RESCO\resco_benchmark\environments/unirii/osm.view.xml"/>
    </gui_only>

</configuration>
-->

<tripinfos xmlns:xsi="http://www.w3.org/2001/XMLSchema-instance" xsi:noNamespaceSchemaLocation="http://sumo.dlr.de/xsd/tripinfo_file.xsd">
    <tripinfo id="3" depart="7.00" departLane="E8_0" departPos="5.10" departSpeed="0.00" departDelay="0.65" arrival="69.00" arrivalLane="-256961141#1_0" arrivalPos="204.72" arrivalSpeed="16.06" duration="62.00" routeLength="832.89" waitingTime="0.00" waitingCount="0" stopTime="0.00" timeLoss="12.77" rerouteNo="0" devices="tripinfo_3" vType="DEFAULT_VEHTYPE" speedFactor="1.23" vaporized=""/>
    <tripinfo id="2" depart="5.00" departLane="666135205#0_0" departPos="5.10" departSpeed="0.00" departDelay="0.76" arrival="105.00" arrivalLane="231177697#0_0" arrivalPos="74.44" arrivalSpeed="15.24" duration="100.00" routeLength="649.17" waitingTime="45.00" waitingCount="1" stopTime="0.00" timeLoss="56.26" rerouteNo="0" devices="tripinfo_2" vType="DEFAULT_VEHTYPE" speedFactor="1.13" vaporized=""/>
    <tripinfo id="10" depart="23.00" departLane="978867529_0" departPos="5.10" departSpeed="0.00" departDelay="1.82" arrival="113.00" arrivalLane="231177697#0_1" arrivalPos="74.44" arrivalSpeed="13.66" duration="90.00" routeLength="437.06" waitingTime="54.00" waitingCount="1" stopTime="0.00" timeLoss="63.03" rerouteNo="0" devices="tripinfo_10" vType="DEFAULT_VEHTYPE" speedFactor="1.08" vaporized=""/>
    <tripinfo id="15" depart="33.00" departLane="978867529_0" departPos="5.10" departSpeed="0.00" departDelay="1.24" arrival="116.00" arrivalLane="231177697#0_1" arrivalPos="74.44" arrivalSpeed="11.97" duration="83.00" routeLength="437.06" waitingTime="40.00" waitingCount="1" stopTime="0.00" timeLoss="50.52" rerouteNo="0" devices="tripinfo_15" vType="DEFAULT_VEHTYPE" speedFactor="0.89" vaporized=""/>
    <tripinfo id="32" depart="68.00" departLane="978867529_0" departPos="5.10" departSpeed="0.00" departDelay="0.24" arrival="118.00" arrivalLane="231177697#0_1" arrivalPos="74.44" arrivalSpeed="14.34" duration="50.00" routeLength="437.06" waitingTime="9.00" waitingCount="1" stopTime="0.00" timeLoss="22.51" rerouteNo="0" devices="tripinfo_32" vType="DEFAULT_VEHTYPE" speedFactor="1.07" vaporized=""/>
    <tripinfo id="4" depart="9.00" departLane="-661251539_0" departPos="5.10" departSpeed="0.00" departDelay="0.53" arrival="123.00" arrivalLane="-256961141#1_1" arrivalPos="204.72" arrivalSpeed="14.44" duration="114.00" routeLength="872.91" waitingTime="42.00" waitingCount="1" stopTime="0.00" timeLoss="55.70" rerouteNo="0" devices="tripinfo_4" vType="DEFAULT_VEHTYPE" speedFactor="1.04" vaporized=""/>
    <tripinfo id="17" depart="36.00" departLane="-661251539_0" departPos="5.10" departSpeed="0.00" departDelay="0.00" arrival="129.00" arrivalLane="218680176#0_1" arrivalPos="98.94" arrivalSpeed="11.34" duration="93.00" routeLength="1001.21" waitingTime="0.00" waitingCount="0" stopTime="0.00" timeLoss="9.10" rerouteNo="0" devices="tripinfo_17" vType="DEFAULT_VEHTYPE" speedFactor="0.87" vaporized=""/>
    <tripinfo id="35" depart="75.00" departLane="-226276377#1_0" departPos="5.10" departSpeed="0.00" departDelay="0.88" arrival="133.00" arrivalLane="450554042#0_0" arrivalPos="622.66" arrivalSpeed="14.98" duration="58.00" routeLength="763.53" waitingTime="0.00" waitingCount="0" stopTime="0.00" timeLoss="6.58" rerouteNo="0" devices="tripinfo_35" vType="DEFAULT_VEHTYPE" speedFactor="0.93" vaporized=""/>
    <tripinfo id="0" depart="0.00" departLane="65746828#0_0" departPos="5.10" departSpeed="0.00" departDelay="0.00" arrival="135.00" arrivalLane="-256961141#1_1" arrivalPos="204.72" arrivalSpeed="12.08" duration="135.00" routeLength="931.50" waitingTime="54.00" waitingCount="1" stopTime="0.00" timeLoss="66.61" rerouteNo="0" devices="tripinfo_0" vType="DEFAULT_VEHTYPE" speedFactor="0.91" vaporized=""/>
    <tripinfo id="30" depart="64.00" departLane="E8_0" departPos="5.10" departSpeed="0.00" departDelay="0.47" arrival="136.00" arrivalLane="226276377#0_1" arrivalPos="135.52" arrivalSpeed="11.70" duration="72.00" routeLength="784.51" waitingTime="0.00" waitingCount="0" stopTime="0.00" timeLoss="7.33" rerouteNo="0" devices="tripinfo_30" vType="DEFAULT_VEHTYPE" speedFactor="0.89" vaporized=""/>
    <tripinfo id="9" depart="20.00" departLane="978867529_0" departPos="5.10" departSpeed="0.00" departDelay="0.94" arrival="142.00" arrivalLane="-256961141#1_1" arrivalPos="204.72" arrivalSpeed="11.87" duration="122.00" routeLength="1459.36" waitingTime="0.00" waitingCount="0" stopTime="0.00" timeLoss="14.14" rerouteNo="0" devices="tripinfo_9" vType="DEFAULT_VEHTYPE" speedFactor="0.89" vaporized=""/>
    <tripinfo id="14" depart="30.00" departLane="978867529_0" departPos="5.10" departSpeed="0.00" departDelay="0.35" arrival="142.00" arrivalLane="226276377#0_0" arrivalPos="135.52" arrivalSpeed="12.68" duration="112.00" routeLength="1369.55" waitingTime="8.00" waitingCount="1" stopTime="0.00" timeLoss="20.55" rerouteNo="0" devices="tripinfo_14" vType="DEFAULT_VEHTYPE" speedFactor="0.98" vaporized=""/>
    <tripinfo id="18" depart="39.00" departLane="978867529_0" departPos="5.10" departSpeed="0.00" departDelay="0.88" arrival="144.00" arrivalLane="226276377#0_0" arrivalPos="135.52" arrivalSpeed="14.31" duration="105.00" routeLength="1369.55" waitingTime="5.00" waitingCount="1" stopTime="0.00" timeLoss="18.74" rerouteNo="0" devices="tripinfo_18" vType="DEFAULT_VEHTYPE" speedFactor="1.05" vaporized=""/>
    <tripinfo id="19" depart="42.00" departLane="978867529_0" departPos="5.10" departSpeed="0.00" departDelay="1.76" arrival="146.00" arrivalLane="226276377#0_0" arrivalPos="135.52" arrivalSpeed="14.88" duration="104.00" routeLength="1369.55" waitingTime="4.00" waitingCount="1" stopTime="0.00" timeLoss="21.59" rerouteNo="0" devices="tripinfo_19" vType="DEFAULT_VEHTYPE" speedFactor="1.09" vaporized=""/>
    <tripinfo id="6" depart="13.00" departLane="-218680176#1_0" departPos="5.10" departSpeed="0.00" departDelay="0.29" arrival="157.00" arrivalLane="153964138#0_1" arrivalPos="337.99" arrivalSpeed="14.16" duration="144.00" routeLength="462.27" waitingTime="100.00" waitingCount="1" stopTime="0.00" timeLoss="109.71" rerouteNo="0" devices="tripinfo_6" vType="DEFAULT_VEHTYPE" speedFactor="0.87" vaporized=""/>
    <tripinfo id="61" depart="130.00" departLane="978867529_0" departPos="5.10" departSpeed="0.00" departDelay="0.82" arrival="165.00" arrivalLane="218680176#0_0" arrivalPos="98.94" arrivalSpeed="15.39" duration="35.00" routeLength="442.15" waitingTime="0.00" waitingCount="0" stopTime="0.00" timeLoss="9.33" rerouteNo="0" devices="tripinfo_61" vType="DEFAULT_VEHTYPE" speedFactor="1.14" vaporized=""/>
    <tripinfo id="31" depart="66.00" departLane="65746828#0_0" departPos="5.10" departSpeed="0.00" departDelay="0.35" arrival="168.00" arrivalLane="231177697#0_0" arrivalPos="74.44" arrivalSpeed="11.77" duration="102.00" routeLength="558.79" waitingTime="45.00" waitingCount="1" stopTime="0.00" timeLoss="57.43" rerouteNo="0" devices="tripinfo_31" vType="DEFAULT_VEHTYPE" speedFactor="0.92" vaporized=""/>
    <tripinfo id="11" depart="24.00" departLane="-661251539_0" departPos="5.10" departSpeed="0.00" departDelay="0.71" arrival="181.00" arrivalLane="153964138#0_0" arrivalPos="337.99" arrivalSpeed="13.95" duration="157.00" routeLength="1239.04" waitingTime="43.00" waitingCount="1" stopTime="0.00" timeLoss="62.55" rerouteNo="0" devices="tripinfo_11" vType="DEFAULT_VEHTYPE" speedFactor="0.91" vaporized=""/>
    <tripinfo id="25" depart="53.00" departLane="-661251539_0" departPos="5.10" departSpeed="0.00" departDelay="0.06" arrival="181.00" arrivalLane="153964138#0_1" arrivalPos="337.99" arrivalSpeed="14.21" duration="128.00" routeLength="1239.04" waitingTime="13.00" waitingCount="1" stopTime="0.00" timeLoss="29.12" rerouteNo="0" devices="tripinfo_25" vType="DEFAULT_VEHTYPE" speedFactor="0.86" vaporized=""/>
    <tripinfo id="40" depart="85.00" departLane="65746828#0_0" departPos="5.10" departSpeed="0.00" departDelay="0.29" arrival="187.00" arrivalLane="210831345#1_0" arrivalPos="264.29" arrivalSpeed="10.02" duration="102.00" routeLength="446.75" waitingTime="50.00" waitingCount="1" stopTime="0.00" timeLoss="60.34" rerouteNo="0" devices="tripinfo_40" vType="DEFAULT_VEHTYPE" speedFactor="0.78" vaporized=""/>
    <tripinfo id="59" depart="125.00" departLane="65746828#0_0" departPos="5.10" departSpeed="0.00" departDelay="0.06" arrival="194.00" arrivalLane="153964138#0_0" arrivalPos="337.99" arrivalSpeed="14.94" duration="69.00" routeLength="834.49" waitingTime="0.00" waitingCount="0" stopTime="0.00" timeLoss="6.05" rerouteNo="0" devices="tripinfo_59" vType="DEFAULT_VEHTYPE" speedFactor="0.90" vaporized=""/>
    <tripinfo id="16" depart="34.00" departLane="256961141#0_0" departPos="5.10" departSpeed="0.00" departDelay="0.12" arrival="201.00" arrivalLane="450554042#0_0" arrivalPos="622.66" arrivalSpeed="14.55" duration="167.00" routeLength="853.74" waitingTime="96.00" waitingCount="1" stopTime="0.00" timeLoss="107.52" rerouteNo="0" devices="tripinfo_16" vType="DEFAULT_VEHTYPE" speedFactor="0.92" vaporized=""/>
    <tripinfo id="50" depart="106.00" departLane="-218680176#1_0" departPos="5.10" departSpeed="0.00" departDelay="0.12" arrival="201.00" arrivalLane="231177697#0_0" arrivalPos="74.44" arrivalSpeed="12.85" duration="95.00" routeLength="205.97" waitingTime="58.00" waitingCount="2" stopTime="0.00" timeLoss="79.40" rerouteNo="0" devices="tripinfo_50" vType="DEFAULT_VEHTYPE" speedFactor="0.99" vaporized=""/>
    <tripinfo id="79" depart="168.00" departLane="-231177697#2_0" departPos="5.10" departSpeed="0.00" departDelay="0.71" arrival="202.00" arrivalLane="153964138#0_0" arrivalPos="337.99" arrivalSpeed="17.27" duration="34.00" routeLength="417.38" waitingTime="0.00" waitingCount="0" stopTime="0.00" timeLoss="7.77" rerouteNo="0" devices="tripinfo_79" vType="DEFAULT_VEHTYPE" speedFactor="1.04" vaporized=""/>
    <tripinfo id="54" depart="115.00" departLane="256961141#0_0" departPos="5.10" departSpeed="0.00" departDelay="0.65" arrival="205.00" arrivalLane="450554042#0_0" arrivalPos="622.66" arrivalSpeed="14.96" duration="90.00" routeLength="853.74" waitingTime="17.00" waitingCount="1" stopTime="0.00" timeLoss="28.79" rerouteNo="0" devices="tripinfo_54" vType="DEFAULT_VEHTYPE" speedFactor="0.90" vaporized=""/>
    <tripinfo id="27" depart="58.00" departLane="65746828#0_0" departPos="5.10" departSpeed="0.00" departDelay="0.82" arrival="207.00" arrivalLane="226276377#0_0" arrivalPos="135.52" arrivalSpeed="13.16" duration="149.00" routeLength="841.69" waitingTime="74.00" waitingCount="1" stopTime="0.00" timeLoss="90.56" rerouteNo="0" devices="tripinfo_27" vType="DEFAULT_VEHTYPE" speedFactor="0.96" vaporized=""/>
    <tripinfo id="68" depart="144.00" departLane="-218680176#1_0" departPos="5.10" departSpeed="0.00" departDelay="0.00" arrival="208.00" arrivalLane="231177697#0_0" arrivalPos="74.44" arrivalSpeed="14.83" duration="64.00" routeLength="205.97" waitingTime="33.00" waitingCount="1" stopTime="0.00" timeLoss="49.38" rerouteNo="0" devices="tripinfo_68" vType="DEFAULT_VEHTYPE" speedFactor="1.08" vaporized=""/>
    <tripinfo id="7" depart="15.00" departLane="65746828#0_0" departPos="5.10" departSpeed="0.00" departDelay="0.18" arrival="214.00" arrivalLane="218680176#0_1" arrivalPos="98.94" arrivalSpeed="14.85" duration="199.00" routeLength="602.71" waitingTime="142.00" waitingCount="2" stopTime="0.00" timeLoss="159.88" rerouteNo="0" devices="tripinfo_7" vType="DEFAULT_VEHTYPE" speedFactor="1.13" vaporized=""/>
    <tripinfo id="51" depart="108.00" departLane="666135205#0_0" departPos="5.10" departSpeed="0.00" departDelay="0.00" arrival="218.00" arrivalLane="218680176#0_1" arrivalPos="98.94" arrivalSpeed="11.98" duration="110.00" routeLength="693.09" waitingTime="39.00" waitingCount="2" stopTime="0.00" timeLoss="54.31" rerouteNo="0" devices="tripinfo_51" vType="DEFAULT_VEHTYPE" speedFactor="0.93" vaporized=""/>
    <tripinfo id="60" depart="128.00" departLane="666135205#0_0" departPos="5.10" departSpeed="0.00" departDelay="0.94" arrival="220.00" arrivalLane="218680176#0_1" arrivalPos="98.94" arrivalSpeed="14.14" duration="92.00" routeLength="693.09" waitingTime="21.00" waitingCount="2" stopTime="0.00" timeLoss="41.70" rerouteNo="0" devices="tripinfo_60" vType="DEFAULT_VEHTYPE" speedFactor="1.04" vaporized=""/>
    <tripinfo id="12" depart="26.00" departLane="E8_0" departPos="5.10" departSpeed="0.00" departDelay="0.59" arrival="222.00" arrivalLane="210831347#0_1" arrivalPos="149.88" arrivalSpeed="10.11" duration="196.00" routeLength="1367.17" waitingTime="59.00" waitingCount="2" stopTime="0.00" timeLoss="77.47" rerouteNo="0" devices="tripinfo_12" vType="DEFAULT_VEHTYPE" speedFactor="0.80" vaporized=""/>
    <tripinfo id="36" depart="77.00" departLane="978867529_0" departPos="5.10" departSpeed="0.00" departDelay="0.76" arrival="223.00" arrivalLane="210831345#1_1" arrivalPos="264.29" arrivalSpeed="17.36" duration="146.00" routeLength="951.92" waitingTime="82.00" waitingCount="1" stopTime="0.00" timeLoss="94.59" rerouteNo="0" devices="tripinfo_36" vType="DEFAULT_VEHTYPE" speedFactor="1.28" vaporized=""/>
    <tripinfo id="29" depart="63.00" departLane="-226276377#1_0" departPos="5.10" departSpeed="0.00" departDelay="1.59" arrival="224.00" arrivalLane="210831347#0_1" arrivalPos="149.88" arrivalSpeed="14.30" duration="161.00" routeLength="888.52" waitingTime="83.00" waitingCount="2" stopTime="0.00" timeLoss="108.11" rerouteNo="0" devices="tripinfo_29" vType="DEFAULT_VEHTYPE" speedFactor="1.16" vaporized=""/>
    <tripinfo id="53" depart="113.00" departLane="-226276377#1_0" departPos="5.10" departSpeed="0.00" departDelay="0.76" arrival="226.00" arrivalLane="210831347#0_1" arrivalPos="149.88" arrivalSpeed="13.35" duration="113.00" routeLength="888.52" waitingTime="30.00" waitingCount="2" stopTime="0.00" timeLoss="51.17" rerouteNo="0" devices="tripinfo_53" vType="DEFAULT_VEHTYPE" speedFactor="0.99" vaporized=""/>
    <tripinfo id="57" depart="121.00" departLane="E8_0" departPos="5.10" departSpeed="0.00" departDelay="0.29" arrival="230.00" arrivalLane="39907424_0" arrivalPos="316.44" arrivalSpeed="13.14" duration="109.00" routeLength="1303.68" waitingTime="4.00" waitingCount="1" stopTime="0.00" timeLoss="20.47" rerouteNo="0" devices="tripinfo_57" vType="DEFAULT_VEHTYPE" speedFactor="1.03" vaporized=""/>
    <tripinfo id="49" depart="105.00" departLane="E8_0" departPos="5.10" departSpeed="0.00" departDelay="1.24" arrival="232.00" arrivalLane="39907424_0" arrivalPos="316.44" arrivalSpeed="14.22" duration="127.00" routeLength="1303.68" waitingTime="22.00" waitingCount="1" stopTime="0.00" timeLoss="39.85" rerouteNo="0" devices="tripinfo_49" vType="DEFAULT_VEHTYPE" speedFactor="1.05" vaporized=""/>
    <tripinfo id="1" depart="3.00" departLane="-231177697#2_0" departPos="5.10" departSpeed="0.00" departDelay="0.88" arrival="233.00" arrivalLane="210831345#1_1" arrivalPos="264.29" arrivalSpeed="12.17" duration="230.00" routeLength="696.92" waitingTime="158.00" waitingCount="2" stopTime="0.00" timeLoss="172.62" rerouteNo="0" devices="tripinfo_1" vType="DEFAULT_VEHTYPE" speedFactor="0.90" vaporized=""/>
    <tripinfo id="34" depart="72.00" departLane="-231177697#2_0" departPos="5.10" departSpeed="0.00" departDelay="0.00" arrival="233.00" arrivalLane="210831345#1_0" arrivalPos="264.29" arrivalSpeed="15.71" duration="161.00" routeLength="696.92" waitingTime="91.00" waitingCount="2" stopTime="0.00" timeLoss="118.86" rerouteNo="0" devices="tripinfo_34" vType="DEFAULT_VEHTYPE" speedFactor="1.21" vaporized=""/>
    <tripinfo id="41" depart="88.00" departLane="65746828#0_0" departPos="5.10" departSpeed="0.00" departDelay="1.18" arrival="233.00" arrivalLane="450554042#0_0" arrivalPos="622.66" arrivalSpeed="17.06" duration="145.00" routeLength="1340.72" waitingTime="49.00" waitingCount="1" stopTime="0.00" timeLoss="64.91" rerouteNo="0" devices="tripinfo_41" vType="DEFAULT_VEHTYPE" speedFactor="1.05" vaporized=""/>
    <tripinfo id="21" depart="45.00" departLane="-231177697#2_0" departPos="5.10" departSpeed="0.00" departDelay="0.53" arrival="234.00" arrivalLane="210831345#1_1" arrivalPos="264.29" arrivalSpeed="12.09" duration="189.00" routeLength="696.92" waitingTime="116.00" waitingCount="2" stopTime="0.00" timeLoss="135.48" rerouteNo="0" devices="tripinfo_21" vType="DEFAULT_VEHTYPE" speedFactor="0.95" vaporized=""/>
    <tripinfo id="39" depart="83.00" departLane="-231177697#2_0" departPos="5.10" departSpeed="0.00" departDelay="0.41" arrival="236.00" arrivalLane="210831345#1_1" arrivalPos="264.29" arrivalSpeed="15.96" duration="153.00" routeLength="696.92" waitingTime="83.00" waitingCount="2" stopTime="0.00" timeLoss="108.78" rerouteNo="0" devices="tripinfo_39" vType="DEFAULT_VEHTYPE" speedFactor="1.17" vaporized=""/>
    <tripinfo id="55" depart="117.00" departLane="978867529_0" departPos="5.10" departSpeed="0.00" departDelay="0.53" arrival="240.00" arrivalLane="210831345#1_1" arrivalPos="264.29" arrivalSpeed="11.92" duration="123.00" routeLength="951.92" waitingTime="34.00" waitingCount="2" stopTime="0.00" timeLoss="51.76" rerouteNo="0" devices="tripinfo_55" vType="DEFAULT_VEHTYPE" speedFactor="0.92" vaporized=""/>
    <tripinfo id="22" depart="47.00" departLane="-218680176#1_0" departPos="5.10" departSpeed="0.00" departDelay="0.41" arrival="241.00" arrivalLane="210831345#1_0" arrivalPos="264.29" arrivalSpeed="14.34" duration="194.00" routeLength="699.94" waitingTime="121.00" waitingCount="3" stopTime="0.00" timeLoss="145.79" rerouteNo="0" devices="tripinfo_22" vType="DEFAULT_VEHTYPE" speedFactor="1.08" vaporized=""/>
    <tripinfo id="23" depart="50.00" departLane="-218680176#1_0" departPos="5.10" departSpeed="0.00" departDelay="1.29" arrival="243.00" arrivalLane="210831345#1_1" arrivalPos="264.29" arrivalSpeed="12.97" duration="193.00" routeLength="699.94" waitingTime="114.00" waitingCount="3" stopTime="0.00" timeLoss="139.71" rerouteNo="0" devices="tripinfo_23" vType="DEFAULT_VEHTYPE" speedFactor="0.98" vaporized=""/>
    <tripinfo id="62" depart="132.00" departLane="-218680176#1_0" departPos="5.10" departSpeed="0.00" departDelay="0.71" arrival="249.00" arrivalLane="210831345#1_0" arrivalPos="264.29" arrivalSpeed="11.74" duration="117.00" routeLength="699.94" waitingTime="42.00" waitingCount="1" stopTime="0.00" timeLoss="57.83" rerouteNo="0" devices="tripinfo_62" vType="DEFAULT_VEHTYPE" speedFactor="0.87" vaporized=""/>
    <tripinfo id="86" depart="183.00" departLane="256961141#0_0" departPos="5.10" departSpeed="0.00" departDelay="0.88" arrival="291.00" arrivalLane="39907424_0" arrivalPos="316.44" arrivalSpeed="12.76" duration="108.00" routeLength="873.95" waitingTime="27.00" waitingCount="1" stopTime="0.00" timeLoss="42.56" rerouteNo="0" devices="tripinfo_86" vType="DEFAULT_VEHTYPE" speedFactor="0.92" vaporized=""/>
    <tripinfo id="117" depart="248.00" departLane="-231177697#2_0" departPos="5.10" departSpeed="0.00" departDelay="0.24" arrival="299.00" arrivalLane="153964138#0_0" arrivalPos="337.99" arrivalSpeed="15.52" duration="51.00" routeLength="417.38" waitingTime="13.00" waitingCount="1" stopTime="0.00" timeLoss="22.83" rerouteNo="0" devices="tripinfo_117" vType="DEFAULT_VEHTYPE" speedFactor="0.95" vaporized=""/>
    <tripinfo id="114" depart="242.00" departLane="-226276377#1_0" departPos="5.10" departSpeed="0.00" departDelay="0.59" arrival="303.00" arrivalLane="450554042#0_0" arrivalPos="622.66" arrivalSpeed="13.86" duration="61.00" routeLength="763.53" waitingTime="0.00" waitingCount="0" stopTime="0.00" timeLoss="6.98" rerouteNo="0" devices="tripinfo_114" vType="DEFAULT_VEHTYPE" speedFactor="0.89" vaporized=""/>
    <tripinfo id="115" depart="244.00" departLane="-218680176#1_0" departPos="5.10" departSpeed="0.00" departDelay="0.47" arrival="303.00" arrivalLane="153964138#0_2" arrivalPos="337.99" arrivalSpeed="16.75" duration="59.00" routeLength="462.27" waitingTime="20.00" waitingCount="1" stopTime="0.00" timeLoss="30.59" rerouteNo="0" devices="tripinfo_115" vType="DEFAULT_VEHTYPE" speedFactor="1.06" vaporized=""/>
    <tripinfo id="113" depart="240.00" departLane="256961141#0_0" departPos="5.10" departSpeed="0.00" departDelay="0.71" arrival="306.00" arrivalLane="39907424_0" arrivalPos="316.44" arrivalSpeed="14.61" duration="66.00" routeLength="873.95" waitingTime="0.00" waitingCount="0" stopTime="0.00" timeLoss="9.79" rerouteNo="0" devices="tripinfo_113" vType="DEFAULT_VEHTYPE" speedFactor="1.09" vaporized=""/>
    <tripinfo id="128" depart="272.00" departLane="-218680176#1_0" departPos="5.10" departSpeed="0.00" departDelay="0.94" arrival="311.00" arrivalLane="153964138#0_1" arrivalPos="337.99" arrivalSpeed="13.60" duration="39.00" routeLength="462.27" waitingTime="0.00" waitingCount="0" stopTime="0.00" timeLoss="5.67" rerouteNo="0" devices="tripinfo_128" vType="DEFAULT_VEHTYPE" speedFactor="0.89" vaporized=""/>
    <tripinfo id="145" depart="308.00" departLane="-218680176#1_0" departPos="5.10" departSpeed="0.00" departDelay="0.94" arrival="327.00" arrivalLane="231177697#0_0" arrivalPos="74.44" arrivalSpeed="12.80" duration="19.00" routeLength="205.97" waitingTime="0.00" waitingCount="0" stopTime="0.00" timeLoss="3.02" rerouteNo="0" devices="tripinfo_145" vType="DEFAULT_VEHTYPE" speedFactor="0.93" vaporized=""/>
    <tripinfo id="132" depart="280.00" departLane="978867529_0" departPos="5.10" departSpeed="0.00" departDelay="0.47" arrival="339.00" arrivalLane="231177697#0_1" arrivalPos="74.44" arrivalSpeed="12.73" duration="59.00" routeLength="437.06" waitingTime="18.00" waitingCount="1" stopTime="0.00" timeLoss="28.93" rerouteNo="0" devices="tripinfo_132" vType="DEFAULT_VEHTYPE" speedFactor="0.97" vaporized=""/>
    <tripinfo id="121" depart="257.00" departLane="256961141#0_0" departPos="5.10" departSpeed="0.00" departDelay="0.76" arrival="347.00" arrivalLane="450554042#0_0" arrivalPos="622.66" arrivalSpeed="16.55" duration="90.00" routeLength="853.74" waitingTime="25.00" waitingCount="1" stopTime="0.00" timeLoss="35.93" rerouteNo="0" devices="tripinfo_121" vType="DEFAULT_VEHTYPE" speedFactor="1.02" vaporized=""/>
    <tripinfo id="142" depart="301.00" departLane="256961141#0_0" departPos="5.10" departSpeed="0.00" departDelay="0.29" arrival="363.00" arrivalLane="450554042#0_0" arrivalPos="622.66" arrivalSpeed="15.97" duration="62.00" routeLength="853.74" waitingTime="0.00" waitingCount="0" stopTime="0.00" timeLoss="5.69" rerouteNo="0" devices="tripinfo_142" vType="DEFAULT_VEHTYPE" speedFactor="0.98" vaporized=""/>
    <tripinfo id="162" depart="344.00" departLane="-218680176#1_0" departPos="5.10" departSpeed="0.00" departDelay="0.94" arrival="383.00" arrivalLane="231177697#0_0" arrivalPos="74.44" arrivalSpeed="16.10" duration="39.00" routeLength="205.97" waitingTime="15.00" waitingCount="1" stopTime="0.00" timeLoss="26.25" rerouteNo="0" devices="tripinfo_162" vType="DEFAULT_VEHTYPE" speedFactor="1.18" vaporized=""/>
    <tripinfo id="75" depart="159.00" departLane="E8_0" departPos="5.10" departSpeed="0.00" departDelay="0.18" arrival="395.00" arrivalLane="226276377#0_1" arrivalPos="135.52" arrivalSpeed="11.83" duration="236.00" routeLength="784.51" waitingTime="160.00" waitingCount="1" stopTime="0.00" timeLoss="170.81" rerouteNo="0" devices="tripinfo_75" vType="DEFAULT_VEHTYPE" speedFactor="0.88" vaporized=""/>
    <tripinfo id="85" depart="180.00" departLane="E8_0" departPos="5.10" departSpeed="0.00" departDelay="0.00" arrival="396.00" arrivalLane="226276377#0_1" arrivalPos="135.52" arrivalSpeed="14.82" duration="216.00" routeLength="784.51" waitingTime="149.00" waitingCount="1" stopTime="0.00" timeLoss="163.29" rerouteNo="0" devices="tripinfo_85" vType="DEFAULT_VEHTYPE" speedFactor="1.08" vaporized=""/>
    <tripinfo id="20" depart="43.00" departLane="666135205#0_0" departPos="5.10" departSpeed="0.00" departDelay="0.65" arrival="397.00" arrivalLane="-256961141#1_1" arrivalPos="204.72" arrivalSpeed="14.91" duration="354.00" routeLength="1068.72" waitingTime="270.00" waitingCount="2" stopTime="0.00" timeLoss="287.64" rerouteNo="0" devices="tripinfo_20" vType="DEFAULT_VEHTYPE" speedFactor="1.08" vaporized=""/>
    <tripinfo id="110" depart="233.00" departLane="E8_0" departPos="5.10" departSpeed="0.00" departDelay="0.06" arrival="398.00" arrivalLane="226276377#0_1" arrivalPos="135.52" arrivalSpeed="13.27" duration="165.00" routeLength="784.51" waitingTime="94.00" waitingCount="1" stopTime="0.00" timeLoss="106.37" rerouteNo="0" devices="tripinfo_110" vType="DEFAULT_VEHTYPE" speedFactor="0.98" vaporized=""/>
    <tripinfo id="103" depart="219.00" departLane="-661251539_0" departPos="5.10" departSpeed="0.00" departDelay="0.88" arrival="402.00" arrivalLane="-256961141#1_1" arrivalPos="204.72" arrivalSpeed="11.57" duration="183.00" routeLength="872.91" waitingTime="102.00" waitingCount="1" stopTime="0.00" timeLoss="115.36" rerouteNo="0" devices="tripinfo_103" vType="DEFAULT_VEHTYPE" speedFactor="0.90" vaporized=""/>
    <tripinfo id="134" depart="285.00" departLane="65746828#0_0" departPos="5.10" departSpeed="0.00" departDelay="1.24" arrival="404.00" arrivalLane="-256961141#1_1" arrivalPos="204.72" arrivalSpeed="13.06" duration="119.00" routeLength="931.50" waitingTime="42.00" waitingCount="1" stopTime="0.00" timeLoss="57.59" rerouteNo="0" devices="tripinfo_134" vType="DEFAULT_VEHTYPE" speedFactor="1.02" vaporized=""/>
    <tripinfo id="148" depart="314.00" departLane="-661251539_0" departPos="5.10" departSpeed="0.00" departDelay="0.59" arrival="406.00" arrivalLane="-256961141#1_1" arrivalPos="204.72" arrivalSpeed="13.44" duration="92.00" routeLength="872.91" waitingTime="15.00" waitingCount="1" stopTime="0.00" timeLoss="29.51" rerouteNo="0" devices="tripinfo_148" vType="DEFAULT_VEHTYPE" speedFactor="0.98" vaporized=""/>
    <tripinfo id="171" depart="363.00" departLane="-218680176#1_0" departPos="5.10" departSpeed="0.00" departDelay="0.88" arrival="428.00" arrivalLane="153964138#0_2" arrivalPos="337.99" arrivalSpeed="17.74" duration="65.00" routeLength="462.27" waitingTime="27.00" waitingCount="1" stopTime="0.00" timeLoss="36.88" rerouteNo="0" devices="tripinfo_171" vType="DEFAULT_VEHTYPE" speedFactor="1.07" vaporized=""/>
    <tripinfo id="196" depart="416.00" departLane="-231177697#2_0" departPos="5.10" departSpeed="0.00" departDelay="0.94" arrival="441.00" arrivalLane="218680176#0_0" arrivalPos="98.94" arrivalSpeed="12.27" duration="25.00" routeLength="206.06" waitingTime="0.00" waitingCount="0" stopTime="0.00" timeLoss="8.46" rerouteNo="0" devices="tripinfo_196" vType="DEFAULT_VEHTYPE" speedFactor="0.91" vaporized=""/>
    <tripinfo id="159" depart="337.00" departLane="-226276377#1_0" departPos="5.10" departSpeed="0.00" departDelay="0.29" arrival="443.00" arrivalLane="450554042#0_0" arrivalPos="622.66" arrivalSpeed="15.23" duration="106.00" routeLength="763.53" waitingTime="43.00" waitingCount="1" stopTime="0.00" timeLoss="54.78" rerouteNo="0" devices="tripinfo_159" vType="DEFAULT_VEHTYPE" speedFactor="0.94" vaporized=""/>
    <tripinfo id="208" depart="441.00" departLane="-231177697#2_0" departPos="5.10" departSpeed="0.00" departDelay="0.53" arrival="458.00" arrivalLane="218680176#0_0" arrivalPos="98.94" arrivalSpeed="15.29" duration="17.00" routeLength="206.06" waitingTime="0.00" waitingCount="0" stopTime="0.00" timeLoss="3.64" rerouteNo="0" devices="tripinfo_208" vType="DEFAULT_VEHTYPE" speedFactor="1.16" vaporized=""/>
    <tripinfo id="181" depart="384.00" departLane="65746828#0_0" departPos="5.10" departSpeed="0.00" departDelay="0.71" arrival="464.00" arrivalLane="218680176#0_1" arrivalPos="98.94" arrivalSpeed="14.02" duration="80.00" routeLength="602.71" waitingTime="24.00" waitingCount="2" stopTime="0.00" timeLoss="37.99" rerouteNo="0" devices="tripinfo_181" vType="DEFAULT_VEHTYPE" speedFactor="1.05" vaporized=""/>
    <tripinfo id="92" depart="195.00" departLane="-661251539_0" departPos="5.10" departSpeed="0.00" departDelay="0.18" arrival="468.00" arrivalLane="210831347#0_1" arrivalPos="149.88" arrivalSpeed="14.03" duration="273.00" routeLength="731.18" waitingTime="209.00" waitingCount="1" stopTime="0.00" timeLoss="221.38" rerouteNo="0" devices="tripinfo_92" vType="DEFAULT_VEHTYPE" speedFactor="1.04" vaporized=""/>