<?xml version="1.0" encoding="UTF-8"?>

<!-- generated on 2024-09-03 02:42:32 by Eclipse SUMO sumo Version 1.20.0
<configuration xmlns:xsi="http://www.w3.org/2001/XMLSchema-instance" xsi:noNamespaceSchemaLocation="http://sumo.dlr.de/xsd/sumoConfiguration.xsd">

    <input>
        <net-file value="c:\self\School\Master\Disertation\code\RESCO\resco_benchmark\environments/unirii/osm.net.xml.gz"/>
        <route-files value="c:\self\School\Master\Disertation\code\RESCO\resco_benchmark\environments/unirii/osm.passenger.trips.xml"/>
        <additional-files value="c:\self\School\Master\Disertation\code\RESCO\resco_benchmark\environments/unirii/osm.poly.xml.gz"/>
    </input>

    <output>
        <tripinfo-output value="C:\self\School\Master\Disertation\code\RESCO\results\IA2C-tr0-unirii-0-drq_norm-wait_norm\tripinfo_39.xml"/>
        <tripinfo-output.write-unfinished value="true"/>
    </output>

    <processing>
        <ignore-route-errors value="true"/>
        <time-to-teleport value="-1"/>
    </processing>

    <routing>
        <device.rerouting.adaptation-steps value="18"/>
        <device.rerouting.adaptation-interval value="10"/>
    </routing>

    <report>
        <verbose value="true"/>
        <no-warnings value="True"/>
        <duration-log.statistics value="true"/>
        <no-step-log value="True"/>
    </report>

    <traci_server>
        <remote-port value="52225"/>
    </traci_server>

    <random_number>
        <random value="true"/>
    </random_number>

    <gui_only>
        <gui-settings-file value="c:\self\School\Master\Disertation\code\RESCO\resco_benchmark\environments/unirii/osm.view.xml"/>
    </gui_only>

</configuration>
-->

<tripinfos xmlns:xsi="http://www.w3.org/2001/XMLSchema-instance" xsi:noNamespaceSchemaLocation="http://sumo.dlr.de/xsd/tripinfo_file.xsd">
    <tripinfo id="10" depart="23.00" departLane="978867529_0" departPos="5.10" departSpeed="0.00" departDelay="1.82" arrival="63.00" arrivalLane="231177697#0_1" arrivalPos="74.44" arrivalSpeed="12.99" duration="40.00" routeLength="437.06" waitingTime="1.00" waitingCount="1" stopTime="0.00" timeLoss="10.59" rerouteNo="0" devices="tripinfo_10" vType="DEFAULT_VEHTYPE" speedFactor="0.96" vaporized=""/>
    <tripinfo id="15" depart="33.00" departLane="978867529_0" departPos="5.10" departSpeed="0.00" departDelay="1.24" arrival="66.00" arrivalLane="231177697#0_1" arrivalPos="74.44" arrivalSpeed="13.55" duration="33.00" routeLength="437.06" waitingTime="0.00" waitingCount="0" stopTime="0.00" timeLoss="4.87" rerouteNo="0" devices="tripinfo_15" vType="DEFAULT_VEHTYPE" speedFactor="1.04" vaporized=""/>
    <tripinfo id="7" depart="15.00" departLane="65746828#0_0" departPos="5.10" departSpeed="0.00" departDelay="0.18" arrival="69.00" arrivalLane="218680176#0_1" arrivalPos="98.94" arrivalSpeed="12.29" duration="54.00" routeLength="602.71" waitingTime="0.00" waitingCount="0" stopTime="0.00" timeLoss="5.02" rerouteNo="0" devices="tripinfo_7" vType="DEFAULT_VEHTYPE" speedFactor="0.91" vaporized=""/>
    <tripinfo id="4" depart="9.00" departLane="-661251539_0" departPos="5.10" departSpeed="0.00" departDelay="0.53" arrival="84.00" arrivalLane="-256961141#1_1" arrivalPos="204.72" arrivalSpeed="11.56" duration="75.00" routeLength="872.91" waitingTime="0.00" waitingCount="0" stopTime="0.00" timeLoss="8.03" rerouteNo="0" devices="tripinfo_4" vType="DEFAULT_VEHTYPE" speedFactor="0.92" vaporized=""/>
    <tripinfo id="2" depart="5.00" departLane="666135205#0_0" departPos="5.10" departSpeed="0.00" departDelay="0.76" arrival="96.00" arrivalLane="231177697#0_0" arrivalPos="74.44" arrivalSpeed="10.39" duration="91.00" routeLength="649.17" waitingTime="18.00" waitingCount="1" stopTime="0.00" timeLoss="28.67" rerouteNo="0" devices="tripinfo_2" vType="DEFAULT_VEHTYPE" speedFactor="0.78" vaporized=""/>
    <tripinfo id="32" depart="68.00" departLane="978867529_0" departPos="5.10" departSpeed="0.00" departDelay="0.24" arrival="113.00" arrivalLane="231177697#0_1" arrivalPos="74.44" arrivalSpeed="15.26" duration="45.00" routeLength="437.06" waitingTime="8.00" waitingCount="1" stopTime="0.00" timeLoss="18.49" rerouteNo="0" devices="tripinfo_32" vType="DEFAULT_VEHTYPE" speedFactor="1.10" vaporized=""/>
    <tripinfo id="40" depart="85.00" departLane="65746828#0_0" departPos="5.10" departSpeed="0.00" departDelay="0.29" arrival="119.00" arrivalLane="210831345#1_0" arrivalPos="264.29" arrivalSpeed="15.02" duration="34.00" routeLength="446.75" waitingTime="0.00" waitingCount="0" stopTime="0.00" timeLoss="4.24" rerouteNo="0" devices="tripinfo_40" vType="DEFAULT_VEHTYPE" speedFactor="1.08" vaporized=""/>
    <tripinfo id="31" depart="66.00" departLane="65746828#0_0" departPos="5.10" departSpeed="0.00" departDelay="0.35" arrival="138.00" arrivalLane="231177697#0_0" arrivalPos="74.44" arrivalSpeed="13.77" duration="72.00" routeLength="558.79" waitingTime="19.00" waitingCount="1" stopTime="0.00" timeLoss="31.58" rerouteNo="0" devices="tripinfo_31" vType="DEFAULT_VEHTYPE" speedFactor="1.02" vaporized=""/>
    <tripinfo id="35" depart="75.00" departLane="-226276377#1_0" departPos="5.10" departSpeed="0.00" departDelay="0.88" arrival="141.00" arrivalLane="450554042#0_0" arrivalPos="622.66" arrivalSpeed="15.90" duration="66.00" routeLength="763.53" waitingTime="7.00" waitingCount="1" stopTime="0.00" timeLoss="16.70" rerouteNo="0" devices="tripinfo_35" vType="DEFAULT_VEHTYPE" speedFactor="0.97" vaporized=""/>
    <tripinfo id="17" depart="36.00" departLane="-661251539_0" departPos="5.10" departSpeed="0.00" departDelay="0.00" arrival="170.00" arrivalLane="218680176#0_1" arrivalPos="98.94" arrivalSpeed="11.76" duration="134.00" routeLength="1001.21" waitingTime="38.00" waitingCount="1" stopTime="0.00" timeLoss="50.29" rerouteNo="0" devices="tripinfo_17" vType="DEFAULT_VEHTYPE" speedFactor="0.88" vaporized=""/>
    <tripinfo id="22" depart="47.00" departLane="-218680176#1_0" departPos="5.10" departSpeed="0.00" departDelay="0.41" arrival="179.00" arrivalLane="210831345#1_1" arrivalPos="264.29" arrivalSpeed="12.01" duration="132.00" routeLength="699.94" waitingTime="63.00" waitingCount="2" stopTime="0.00" timeLoss="77.99" rerouteNo="0" devices="tripinfo_22" vType="DEFAULT_VEHTYPE" speedFactor="0.95" vaporized=""/>
    <tripinfo id="23" depart="50.00" departLane="-218680176#1_0" departPos="5.10" departSpeed="0.00" departDelay="1.29" arrival="183.00" arrivalLane="210831345#1_0" arrivalPos="264.29" arrivalSpeed="11.97" duration="133.00" routeLength="699.94" waitingTime="56.00" waitingCount="3" stopTime="0.00" timeLoss="74.32" rerouteNo="0" devices="tripinfo_23" vType="DEFAULT_VEHTYPE" speedFactor="0.88" vaporized=""/>
    <tripinfo id="36" depart="77.00" departLane="978867529_0" departPos="5.10" departSpeed="0.00" departDelay="0.76" arrival="184.00" arrivalLane="210831345#1_1" arrivalPos="264.29" arrivalSpeed="13.88" duration="107.00" routeLength="951.92" waitingTime="24.00" waitingCount="1" stopTime="0.00" timeLoss="41.96" rerouteNo="0" devices="tripinfo_36" vType="DEFAULT_VEHTYPE" speedFactor="1.01" vaporized=""/>
    <tripinfo id="50" depart="106.00" departLane="-218680176#1_0" departPos="5.10" departSpeed="0.00" departDelay="0.12" arrival="190.00" arrivalLane="231177697#0_0" arrivalPos="74.44" arrivalSpeed="13.55" duration="84.00" routeLength="205.97" waitingTime="50.00" waitingCount="2" stopTime="0.00" timeLoss="68.92" rerouteNo="0" devices="tripinfo_50" vType="DEFAULT_VEHTYPE" speedFactor="1.00" vaporized=""/>
    <tripinfo id="55" depart="117.00" departLane="978867529_0" departPos="5.10" departSpeed="0.00" departDelay="0.53" arrival="190.00" arrivalLane="210831345#1_1" arrivalPos="264.29" arrivalSpeed="13.58" duration="73.00" routeLength="951.92" waitingTime="0.00" waitingCount="0" stopTime="0.00" timeLoss="6.88" rerouteNo="0" devices="tripinfo_55" vType="DEFAULT_VEHTYPE" speedFactor="0.99" vaporized=""/>
    <tripinfo id="30" depart="64.00" departLane="E8_0" departPos="5.10" departSpeed="0.00" departDelay="0.47" arrival="193.00" arrivalLane="226276377#0_1" arrivalPos="135.52" arrivalSpeed="12.79" duration="129.00" routeLength="784.51" waitingTime="61.00" waitingCount="1" stopTime="0.00" timeLoss="71.22" rerouteNo="0" devices="tripinfo_30" vType="DEFAULT_VEHTYPE" speedFactor="0.99" vaporized=""/>
    <tripinfo id="68" depart="144.00" departLane="-218680176#1_0" departPos="5.10" departSpeed="0.00" departDelay="0.00" arrival="198.00" arrivalLane="231177697#0_0" arrivalPos="74.44" arrivalSpeed="12.53" duration="54.00" routeLength="205.97" waitingTime="26.00" waitingCount="1" stopTime="0.00" timeLoss="37.63" rerouteNo="0" devices="tripinfo_68" vType="DEFAULT_VEHTYPE" speedFactor="0.92" vaporized=""/>
    <tripinfo id="0" depart="0.00" departLane="65746828#0_0" departPos="5.10" departSpeed="0.00" departDelay="0.00" arrival="201.00" arrivalLane="-256961141#1_1" arrivalPos="204.72" arrivalSpeed="11.63" duration="201.00" routeLength="931.50" waitingTime="114.00" waitingCount="2" stopTime="0.00" timeLoss="127.29" rerouteNo="0" devices="tripinfo_0" vType="DEFAULT_VEHTYPE" speedFactor="0.84" vaporized=""/>
    <tripinfo id="20" depart="43.00" departLane="666135205#0_0" departPos="5.10" departSpeed="0.00" departDelay="0.65" arrival="203.00" arrivalLane="-256961141#1_1" arrivalPos="204.72" arrivalSpeed="13.82" duration="160.00" routeLength="1068.72" waitingTime="66.00" waitingCount="2" stopTime="0.00" timeLoss="87.74" rerouteNo="0" devices="tripinfo_20" vType="DEFAULT_VEHTYPE" speedFactor="1.00" vaporized=""/>
    <tripinfo id="13" depart="28.00" departLane="-218680176#1_0" departPos="5.10" departSpeed="0.00" departDelay="0.47" arrival="205.00" arrivalLane="-256961141#1_1" arrivalPos="204.72" arrivalSpeed="11.97" duration="177.00" routeLength="1207.38" waitingTime="65.00" waitingCount="2" stopTime="0.00" timeLoss="88.08" rerouteNo="0" devices="tripinfo_13" vType="DEFAULT_VEHTYPE" speedFactor="0.93" vaporized=""/>
    <tripinfo id="9" depart="20.00" departLane="978867529_0" departPos="5.10" departSpeed="0.00" departDelay="0.94" arrival="207.00" arrivalLane="-256961141#1_1" arrivalPos="204.72" arrivalSpeed="13.15" duration="187.00" routeLength="1459.36" waitingTime="55.00" waitingCount="3" stopTime="0.00" timeLoss="90.13" rerouteNo="0" devices="tripinfo_9" vType="DEFAULT_VEHTYPE" speedFactor="1.00" vaporized=""/>
    <tripinfo id="61" depart="130.00" departLane="978867529_0" departPos="5.10" departSpeed="0.00" departDelay="0.82" arrival="214.00" arrivalLane="218680176#0_0" arrivalPos="98.94" arrivalSpeed="13.88" duration="84.00" routeLength="442.15" waitingTime="44.00" waitingCount="1" stopTime="0.00" timeLoss="55.39" rerouteNo="0" devices="tripinfo_61" vType="DEFAULT_VEHTYPE" speedFactor="1.04" vaporized=""/>
    <tripinfo id="27" depart="58.00" departLane="65746828#0_0" departPos="5.10" departSpeed="0.00" departDelay="0.82" arrival="219.00" arrivalLane="226276377#0_0" arrivalPos="135.52" arrivalSpeed="11.58" duration="161.00" routeLength="841.69" waitingTime="81.00" waitingCount="1" stopTime="0.00" timeLoss="94.12" rerouteNo="0" devices="tripinfo_27" vType="DEFAULT_VEHTYPE" speedFactor="0.84" vaporized=""/>
    <tripinfo id="14" depart="30.00" departLane="978867529_0" departPos="5.10" departSpeed="0.00" departDelay="0.35" arrival="221.00" arrivalLane="226276377#0_0" arrivalPos="135.52" arrivalSpeed="12.20" duration="191.00" routeLength="1369.55" waitingTime="67.00" waitingCount="3" stopTime="0.00" timeLoss="93.14" rerouteNo="0" devices="tripinfo_14" vType="DEFAULT_VEHTYPE" speedFactor="0.92" vaporized=""/>
    <tripinfo id="18" depart="39.00" departLane="978867529_0" departPos="5.10" departSpeed="0.00" departDelay="0.88" arrival="222.00" arrivalLane="226276377#0_0" arrivalPos="135.52" arrivalSpeed="14.88" duration="183.00" routeLength="1369.55" waitingTime="59.00" waitingCount="3" stopTime="0.00" timeLoss="100.13" rerouteNo="0" devices="tripinfo_18" vType="DEFAULT_VEHTYPE" speedFactor="1.08" vaporized=""/>
    <tripinfo id="3" depart="7.00" departLane="E8_0" departPos="5.10" departSpeed="0.00" departDelay="0.65" arrival="223.00" arrivalLane="-256961141#1_0" arrivalPos="204.72" arrivalSpeed="12.66" duration="216.00" routeLength="832.89" waitingTime="139.00" waitingCount="1" stopTime="0.00" timeLoss="149.38" rerouteNo="0" devices="tripinfo_3" vType="DEFAULT_VEHTYPE" speedFactor="0.92" vaporized=""/>
    <tripinfo id="19" depart="42.00" departLane="978867529_0" departPos="5.10" departSpeed="0.00" departDelay="1.76" arrival="225.00" arrivalLane="226276377#0_0" arrivalPos="135.52" arrivalSpeed="12.43" duration="183.00" routeLength="1369.55" waitingTime="57.00" waitingCount="3" stopTime="0.00" timeLoss="87.47" rerouteNo="0" devices="tripinfo_19" vType="DEFAULT_VEHTYPE" speedFactor="0.94" vaporized=""/>
    <tripinfo id="69" depart="147.00" departLane="666135205#0_0" departPos="5.10" departSpeed="0.00" departDelay="0.88" arrival="225.00" arrivalLane="153964138#0_2" arrivalPos="337.99" arrivalSpeed="20.78" duration="78.00" routeLength="924.87" waitingTime="5.00" waitingCount="1" stopTime="0.00" timeLoss="26.99" rerouteNo="0" devices="tripinfo_69" vType="DEFAULT_VEHTYPE" speedFactor="1.25" vaporized=""/>
    <tripinfo id="25" depart="53.00" departLane="-661251539_0" departPos="5.10" departSpeed="0.00" departDelay="0.06" arrival="226.00" arrivalLane="153964138#0_0" arrivalPos="337.99" arrivalSpeed="18.27" duration="173.00" routeLength="1239.04" waitingTime="75.00" waitingCount="2" stopTime="0.00" timeLoss="97.42" rerouteNo="0" devices="tripinfo_25" vType="DEFAULT_VEHTYPE" speedFactor="1.13" vaporized=""/>
    <tripinfo id="11" depart="24.00" departLane="-661251539_0" departPos="5.10" departSpeed="0.00" departDelay="0.71" arrival="230.00" arrivalLane="153964138#0_0" arrivalPos="337.99" arrivalSpeed="14.34" duration="206.00" routeLength="1239.04" waitingTime="95.00" waitingCount="2" stopTime="0.00" timeLoss="113.03" rerouteNo="0" devices="tripinfo_11" vType="DEFAULT_VEHTYPE" speedFactor="0.92" vaporized=""/>
    <tripinfo id="42" depart="89.00" departLane="-661251539_0" departPos="5.10" departSpeed="0.00" departDelay="0.06" arrival="230.00" arrivalLane="153964138#0_1" arrivalPos="337.99" arrivalSpeed="15.39" duration="141.00" routeLength="1239.04" waitingTime="37.00" waitingCount="2" stopTime="0.00" timeLoss="54.93" rerouteNo="0" devices="tripinfo_42" vType="DEFAULT_VEHTYPE" speedFactor="0.99" vaporized=""/>
    <tripinfo id="78" depart="166.00" departLane="-661251539_0" departPos="5.10" departSpeed="0.00" departDelay="0.82" arrival="237.00" arrivalLane="226276377#0_0" arrivalPos="135.52" arrivalSpeed="13.53" duration="71.00" routeLength="783.10" waitingTime="4.00" waitingCount="1" stopTime="0.00" timeLoss="16.02" rerouteNo="0" devices="tripinfo_78" vType="DEFAULT_VEHTYPE" speedFactor="0.99" vaporized=""/>
    <tripinfo id="62" depart="132.00" departLane="-218680176#1_0" departPos="5.10" departSpeed="0.00" departDelay="0.71" arrival="241.00" arrivalLane="210831345#1_0" arrivalPos="264.29" arrivalSpeed="11.46" duration="109.00" routeLength="699.94" waitingTime="33.00" waitingCount="1" stopTime="0.00" timeLoss="47.61" rerouteNo="0" devices="tripinfo_62" vType="DEFAULT_VEHTYPE" speedFactor="0.85" vaporized=""/>
    <tripinfo id="49" depart="105.00" departLane="E8_0" departPos="5.10" departSpeed="0.00" departDelay="1.24" arrival="257.00" arrivalLane="39907424_0" arrivalPos="316.44" arrivalSpeed="13.85" duration="152.00" routeLength="1303.68" waitingTime="48.00" waitingCount="1" stopTime="0.00" timeLoss="63.10" rerouteNo="0" devices="tripinfo_49" vType="DEFAULT_VEHTYPE" speedFactor="1.02" vaporized=""/>
    <tripinfo id="41" depart="88.00" departLane="65746828#0_0" departPos="5.10" departSpeed="0.00" departDelay="1.18" arrival="258.00" arrivalLane="450554042#0_0" arrivalPos="622.66" arrivalSpeed="14.19" duration="170.00" routeLength="1340.72" waitingTime="65.00" waitingCount="1" stopTime="0.00" timeLoss="79.21" rerouteNo="0" devices="tripinfo_41" vType="DEFAULT_VEHTYPE" speedFactor="0.92" vaporized=""/>
    <tripinfo id="57" depart="121.00" departLane="E8_0" departPos="5.10" departSpeed="0.00" departDelay="0.29" arrival="258.00" arrivalLane="39907424_0" arrivalPos="316.44" arrivalSpeed="14.34" duration="137.00" routeLength="1303.68" waitingTime="33.00" waitingCount="1" stopTime="0.00" timeLoss="50.90" rerouteNo="0" devices="tripinfo_57" vType="DEFAULT_VEHTYPE" speedFactor="1.05" vaporized=""/>
    <tripinfo id="91" depart="193.00" departLane="E8_0" departPos="5.10" departSpeed="0.00" departDelay="0.29" arrival="271.00" arrivalLane="-256961141#1_0" arrivalPos="204.72" arrivalSpeed="13.33" duration="78.00" routeLength="832.89" waitingTime="9.00" waitingCount="1" stopTime="0.00" timeLoss="19.73" rerouteNo="0" devices="tripinfo_91" vType="DEFAULT_VEHTYPE" speedFactor="1.04" vaporized=""/>
    <tripinfo id="16" depart="34.00" departLane="256961141#0_0" departPos="5.10" departSpeed="0.00" departDelay="0.12" arrival="272.00" arrivalLane="450554042#0_0" arrivalPos="622.66" arrivalSpeed="16.16" duration="238.00" routeLength="853.74" waitingTime="173.00" waitingCount="1" stopTime="0.00" timeLoss="182.22" rerouteNo="0" devices="tripinfo_16" vType="DEFAULT_VEHTYPE" speedFactor="0.98" vaporized=""/>
    <tripinfo id="54" depart="115.00" departLane="256961141#0_0" departPos="5.10" departSpeed="0.00" departDelay="0.65" arrival="274.00" arrivalLane="450554042#0_0" arrivalPos="622.66" arrivalSpeed="15.26" duration="159.00" routeLength="853.74" waitingTime="92.00" waitingCount="1" stopTime="0.00" timeLoss="103.46" rerouteNo="0" devices="tripinfo_54" vType="DEFAULT_VEHTYPE" speedFactor="0.98" vaporized=""/>
    <tripinfo id="6" depart="13.00" departLane="-218680176#1_0" departPos="5.10" departSpeed="0.00" departDelay="0.29" arrival="281.00" arrivalLane="153964138#0_2" arrivalPos="337.99" arrivalSpeed="14.46" duration="268.00" routeLength="462.27" waitingTime="226.00" waitingCount="1" stopTime="0.00" timeLoss="236.01" rerouteNo="0" devices="tripinfo_6" vType="DEFAULT_VEHTYPE" speedFactor="0.94" vaporized=""/>
    <tripinfo id="115" depart="244.00" departLane="-218680176#1_0" departPos="5.10" departSpeed="0.00" departDelay="0.47" arrival="282.00" arrivalLane="153964138#0_1" arrivalPos="337.99" arrivalSpeed="18.04" duration="38.00" routeLength="462.27" waitingTime="0.00" waitingCount="0" stopTime="0.00" timeLoss="11.01" rerouteNo="0" devices="tripinfo_115" vType="DEFAULT_VEHTYPE" speedFactor="1.11" vaporized=""/>
    <tripinfo id="90" depart="191.00" departLane="666135205#0_0" departPos="5.10" departSpeed="0.00" departDelay="0.41" arrival="287.00" arrivalLane="231177697#0_0" arrivalPos="74.44" arrivalSpeed="12.13" duration="96.00" routeLength="649.17" waitingTime="29.00" waitingCount="2" stopTime="0.00" timeLoss="42.16" rerouteNo="0" devices="tripinfo_90" vType="DEFAULT_VEHTYPE" speedFactor="0.89" vaporized=""/>
    <tripinfo id="46" depart="98.00" departLane="978867529_0" departPos="5.10" departSpeed="0.00" departDelay="0.59" arrival="292.00" arrivalLane="210831347#0_0" arrivalPos="149.88" arrivalSpeed="14.11" duration="194.00" routeLength="812.56" waitingTime="124.00" waitingCount="2" stopTime="0.00" timeLoss="143.07" rerouteNo="0" devices="tripinfo_46" vType="DEFAULT_VEHTYPE" speedFactor="1.10" vaporized=""/>
    <tripinfo id="47" depart="100.00" departLane="-218680176#1_0" departPos="5.10" departSpeed="0.00" departDelay="0.47" arrival="294.00" arrivalLane="210831347#0_0" arrivalPos="149.88" arrivalSpeed="15.46" duration="194.00" routeLength="560.58" waitingTime="129.00" waitingCount="3" stopTime="0.00" timeLoss="157.40" rerouteNo="0" devices="tripinfo_47" vType="DEFAULT_VEHTYPE" speedFactor="1.16" vaporized=""/>
    <tripinfo id="88" depart="187.00" departLane="-218680176#1_0" departPos="5.10" departSpeed="0.00" departDelay="0.65" arrival="300.00" arrivalLane="210831347#0_0" arrivalPos="149.88" arrivalSpeed="12.16" duration="113.00" routeLength="560.58" waitingTime="52.00" waitingCount="1" stopTime="0.00" timeLoss="65.10" rerouteNo="0" devices="tripinfo_88" vType="DEFAULT_VEHTYPE" speedFactor="0.88" vaporized=""/>
    <tripinfo id="95" depart="202.00" departLane="-661251539_0" departPos="5.10" departSpeed="0.00" departDelay="0.82" arrival="304.00" arrivalLane="210831345#1_0" arrivalPos="264.29" arrivalSpeed="14.65" duration="102.00" routeLength="826.64" waitingTime="29.00" waitingCount="2" stopTime="0.00" timeLoss="48.75" rerouteNo="0" devices="tripinfo_95" vType="DEFAULT_VEHTYPE" speedFactor="1.14" vaporized=""/>
    <tripinfo id="74" depart="157.00" departLane="-226276377#1_0" departPos="5.10" departSpeed="0.00" departDelay="0.29" arrival="310.00" arrivalLane="210831345#1_0" arrivalPos="264.29" arrivalSpeed="13.96" duration="153.00" routeLength="977.93" waitingTime="66.00" waitingCount="2" stopTime="0.00" timeLoss="87.71" rerouteNo="0" devices="tripinfo_74" vType="DEFAULT_VEHTYPE" speedFactor="1.03" vaporized=""/>
    <tripinfo id="77" depart="164.00" departLane="-226276377#1_0" departPos="5.10" departSpeed="0.00" departDelay="0.94" arrival="312.00" arrivalLane="210831345#1_0" arrivalPos="264.29" arrivalSpeed="14.68" duration="148.00" routeLength="977.93" waitingTime="58.00" waitingCount="2" stopTime="0.00" timeLoss="84.49" rerouteNo="0" devices="tripinfo_77" vType="DEFAULT_VEHTYPE" speedFactor="1.07" vaporized=""/>
    <tripinfo id="109" depart="231.00" departLane="-226276377#1_0" departPos="5.10" departSpeed="0.00" departDelay="0.18" arrival="314.00" arrivalLane="210831345#1_0" arrivalPos="264.29" arrivalSpeed="15.00" duration="83.00" routeLength="977.93" waitingTime="2.00" waitingCount="1" stopTime="0.00" timeLoss="21.52" rerouteNo="0" devices="tripinfo_109" vType="DEFAULT_VEHTYPE" speedFactor="1.12" vaporized=""/>
    <tripinfo id="73" depart="155.00" departLane="256961141#0_0" departPos="5.10" departSpeed="0.00" departDelay="0.41" arrival="316.00" arrivalLane="231177697#0_0" arrivalPos="74.44" arrivalSpeed="13.82" duration="161.00" routeLength="1163.55" waitingTime="63.00" waitingCount="1" stopTime="0.00" timeLoss="80.78" rerouteNo="0" devices="tripinfo_73" vType="DEFAULT_VEHTYPE" speedFactor="1.02" vaporized=""/>
    <tripinfo id="28" depart="60.00" departLane="-226276377#1_0" departPos="5.10" departSpeed="0.00" departDelay="0.71" arrival="320.00" arrivalLane="231177697#0_0" arrivalPos="74.44" arrivalSpeed="13.52" duration="260.00" routeLength="1114.63" waitingTime="160.00" waitingCount="2" stopTime="0.00" timeLoss="183.31" rerouteNo="0" devices="tripinfo_28" vType="DEFAULT_VEHTYPE" speedFactor="1.01" vaporized=""/>
    <tripinfo id="64" depart="136.00" departLane="978867529_0" departPos="5.10" departSpeed="0.00" departDelay="0.47" arrival="320.00" arrivalLane="39907424_0" arrivalPos="316.44" arrivalSpeed="16.61" duration="184.00" routeLength="1216.15" waitingTime="91.00" waitingCount="3" stopTime="0.00" timeLoss="117.09" rerouteNo="0" devices="tripinfo_64" vType="DEFAULT_VEHTYPE" speedFactor="1.23" vaporized=""/>
    <tripinfo id="121" depart="257.00" departLane="256961141#0_0" departPos="5.10" departSpeed="0.00" departDelay="0.76" arrival="320.00" arrivalLane="450554042#0_0" arrivalPos="622.66" arrivalSpeed="16.38" duration="63.00" routeLength="853.74" waitingTime="0.00" waitingCount="0" stopTime="0.00" timeLoss="9.70" rerouteNo="0" devices="tripinfo_121" vType="DEFAULT_VEHTYPE" speedFactor="1.02" vaporized=""/>
    <tripinfo id="56" depart="119.00" departLane="256961141#0_0" departPos="5.10" departSpeed="0.00" departDelay="0.41" arrival="324.00" arrivalLane="153964138#0_0" arrivalPos="337.99" arrivalSpeed="17.82" duration="205.00" routeLength="1439.25" waitingTime="101.00" waitingCount="1" stopTime="0.00" timeLoss="117.77" rerouteNo="0" devices="tripinfo_56" vType="DEFAULT_VEHTYPE" speedFactor="1.10" vaporized=""/>
    <tripinfo id="72" depart="153.00" departLane="-661251539_0" departPos="5.10" departSpeed="0.00" departDelay="0.53" arrival="324.00" arrivalLane="153964138#0_1" arrivalPos="337.99" arrivalSpeed="16.86" duration="171.00" routeLength="1239.04" waitingTime="76.00" waitingCount="1" stopTime="0.00" timeLoss="91.66" rerouteNo="0" devices="tripinfo_72" vType="DEFAULT_VEHTYPE" speedFactor="1.08" vaporized=""/>
    <tripinfo id="71" depart="151.00" departLane="-231177697#2_0" departPos="5.10" departSpeed="0.00" departDelay="0.65" arrival="330.00" arrivalLane="39907424_0" arrivalPos="316.44" arrivalSpeed="13.45" duration="179.00" routeLength="961.15" waitingTime="95.00" waitingCount="2" stopTime="0.00" timeLoss="112.32" rerouteNo="0" devices="tripinfo_71" vType="DEFAULT_VEHTYPE" speedFactor="1.02" vaporized=""/>
    <tripinfo id="105" depart="223.00" departLane="-231177697#2_0" departPos="5.10" departSpeed="0.00" departDelay="0.65" arrival="335.00" arrivalLane="39907424_0" arrivalPos="316.44" arrivalSpeed="14.11" duration="112.00" routeLength="961.15" waitingTime="30.00" waitingCount="3" stopTime="0.00" timeLoss="49.17" rerouteNo="0" devices="tripinfo_105" vType="DEFAULT_VEHTYPE" speedFactor="1.08" vaporized=""/>
    <tripinfo id="84" depart="178.00" departLane="-226276377#1_0" departPos="5.10" departSpeed="0.00" departDelay="0.12" arrival="337.00" arrivalLane="153964138#0_1" arrivalPos="337.99" arrivalSpeed="16.39" duration="159.00" routeLength="1390.33" waitingTime="42.00" waitingCount="1" stopTime="0.00" timeLoss="64.64" rerouteNo="0" devices="tripinfo_84" vType="DEFAULT_VEHTYPE" speedFactor="0.99" vaporized=""/>
    <tripinfo id="132" depart="280.00" departLane="978867529_0" departPos="5.10" departSpeed="0.00" departDelay="0.47" arrival="338.00" arrivalLane="231177697#0_1" arrivalPos="74.44" arrivalSpeed="14.09" duration="58.00" routeLength="437.06" waitingTime="20.00" waitingCount="1" stopTime="0.00" timeLoss="30.80" rerouteNo="0" devices="tripinfo_132" vType="DEFAULT_VEHTYPE" speedFactor="1.06" vaporized=""/>
    <tripinfo id="51" depart="108.00" departLane="666135205#0_0" departPos="5.10" departSpeed="0.00" departDelay="0.00" arrival="341.00" arrivalLane="218680176#0_1" arrivalPos="98.94" arrivalSpeed="12.90" duration="233.00" routeLength="693.09" waitingTime="165.00" waitingCount="2" stopTime="0.00" timeLoss="180.65" rerouteNo="0" devices="tripinfo_51" vType="DEFAULT_VEHTYPE" speedFactor="0.99" vaporized=""/>
    <tripinfo id="60" depart="128.00" departLane="666135205#0_0" departPos="5.10" departSpeed="0.00" departDelay="0.94" arrival="342.00" arrivalLane="218680176#0_1" arrivalPos="98.94" arrivalSpeed="12.95" duration="214.00" routeLength="693.09" waitingTime="146.00" waitingCount="2" stopTime="0.00" timeLoss="162.70" rerouteNo="0" devices="tripinfo_60" vType="DEFAULT_VEHTYPE" speedFactor="1.00" vaporized=""/>
    <tripinfo id="99" depart="210.00" departLane="E8_0" departPos="5.10" departSpeed="0.00" departDelay="0.35" arrival="342.00" arrivalLane="39907424_0" arrivalPos="316.44" arrivalSpeed="11.04" duration="132.00" routeLength="1303.68" waitingTime="15.00" waitingCount="1" stopTime="0.00" timeLoss="30.06" rerouteNo="0" devices="tripinfo_99" vType="DEFAULT_VEHTYPE" speedFactor="0.89" vaporized=""/>
    <tripinfo id="70" depart="149.00" departLane="256961141#0_0" departPos="5.10" departSpeed="0.00" departDelay="0.76" arrival="344.00" arrivalLane="218680176#0_1" arrivalPos="98.94" arrivalSpeed="13.01" duration="195.00" routeLength="1207.47" waitingTime="90.00" waitingCount="2" stopTime="0.00" timeLoss="111.32" rerouteNo="0" devices="tripinfo_70" vType="DEFAULT_VEHTYPE" speedFactor="1.01" vaporized=""/>
    <tripinfo id="120" depart="255.00" departLane="-661251539_0" departPos="5.10" departSpeed="0.00" departDelay="0.88" arrival="345.00" arrivalLane="226276377#0_0" arrivalPos="135.52" arrivalSpeed="13.43" duration="90.00" routeLength="783.10" waitingTime="22.00" waitingCount="1" stopTime="0.00" timeLoss="35.36" rerouteNo="0" devices="tripinfo_120" vType="DEFAULT_VEHTYPE" speedFactor="1.00" vaporized=""/>
    <tripinfo id="89" depart="189.00" departLane="-661251539_0" departPos="5.10" departSpeed="0.00" departDelay="0.53" arrival="347.00" arrivalLane="218680176#0_1" arrivalPos="98.94" arrivalSpeed="13.12" duration="158.00" routeLength="1001.21" waitingTime="60.00" waitingCount="2" stopTime="0.00" timeLoss="82.70" rerouteNo="0" devices="tripinfo_89" vType="DEFAULT_VEHTYPE" speedFactor="0.98" vaporized=""/>
    <tripinfo id="119" depart="252.00" departLane="65746828#0_0" departPos="5.10" departSpeed="0.00" departDelay="0.00" arrival="348.00" arrivalLane="226276377#0_0" arrivalPos="135.52" arrivalSpeed="12.80" duration="96.00" routeLength="841.69" waitingTime="21.00" waitingCount="1" stopTime="0.00" timeLoss="36.74" rerouteNo="0" devices="tripinfo_119" vType="DEFAULT_VEHTYPE" speedFactor="0.95" vaporized=""/>
    <tripinfo id="43" depart="92.00" departLane="E8_0" departPos="5.10" departSpeed="0.00" departDelay="0.94" arrival="349.00" arrivalLane="218680176#0_1" arrivalPos="98.94" arrivalSpeed="12.76" duration="257.00" routeLength="1637.20" waitingTime="103.00" waitingCount="3" stopTime="0.00" timeLoss="134.76" rerouteNo="0" devices="tripinfo_43" vType="DEFAULT_VEHTYPE" speedFactor="0.94" vaporized=""/>
    <tripinfo id="114" depart="242.00" departLane="-226276377#1_0" departPos="5.10" departSpeed="0.00" departDelay="0.59" arrival="349.00" arrivalLane="450554042#0_0" arrivalPos="622.66" arrivalSpeed="14.38" duration="107.00" routeLength="763.53" waitingTime="44.00" waitingCount="1" stopTime="0.00" timeLoss="54.55" rerouteNo="0" devices="tripinfo_114" vType="DEFAULT_VEHTYPE" speedFactor="0.93" vaporized=""/>
    <tripinfo id="45" depart="97.00" departLane="-218680176#1_0" departPos="5.10" departSpeed="0.00" departDelay="1.71" arrival="351.00" arrivalLane="226276377#0_0" arrivalPos="135.52" arrivalSpeed="11.63" duration="254.00" routeLength="1117.57" waitingTime="137.00" waitingCount="4" stopTime="0.00" timeLoss="169.47" rerouteNo="0" devices="tripinfo_45" vType="DEFAULT_VEHTYPE" speedFactor="0.90" vaporized=""/>