<?xml version="1.0" encoding="UTF-8"?>

<!-- generated on 2024-09-03 02:37:35 by Eclipse SUMO sumo Version 1.20.0
<configuration xmlns:xsi="http://www.w3.org/2001/XMLSchema-instance" xsi:noNamespaceSchemaLocation="http://sumo.dlr.de/xsd/sumoConfiguration.xsd">

    <input>
        <net-file value="c:\self\School\Master\Disertation\code\RESCO\resco_benchmark\environments/unirii/osm.net.xml.gz"/>
        <route-files value="c:\self\School\Master\Disertation\code\RESCO\resco_benchmark\environments/unirii/osm.passenger.trips.xml"/>
        <additional-files value="c:\self\School\Master\Disertation\code\RESCO\resco_benchmark\environments/unirii/osm.poly.xml.gz"/>
    </input>

    <output>
        <tripinfo-output value="C:\self\School\Master\Disertation\code\RESCO\results\IA2C-tr0-unirii-0-drq_norm-wait_norm\tripinfo_13.xml"/>
        <tripinfo-output.write-unfinished value="true"/>
    </output>

    <processing>
        <ignore-route-errors value="true"/>
        <time-to-teleport value="-1"/>
    </processing>

    <routing>
        <device.rerouting.adaptation-steps value="18"/>
        <device.rerouting.adaptation-interval value="10"/>
    </routing>

    <report>
        <verbose value="true"/>
        <no-warnings value="True"/>
        <duration-log.statistics value="true"/>
        <no-step-log value="True"/>
    </report>

    <traci_server>
        <remote-port value="51913"/>
    </traci_server>

    <random_number>
        <random value="true"/>
    </random_number>

    <gui_only>
        <gui-settings-file value="c:\self\School\Master\Disertation\code\RESCO\resco_benchmark\environments/unirii/osm.view.xml"/>
    </gui_only>

</configuration>
-->

<tripinfos xmlns:xsi="http://www.w3.org/2001/XMLSchema-instance" xsi:noNamespaceSchemaLocation="http://sumo.dlr.de/xsd/tripinfo_file.xsd">
    <tripinfo id="3" depart="7.00" departLane="E8_0" departPos="5.10" departSpeed="0.00" departDelay="0.65" arrival="72.00" arrivalLane="-256961141#1_0" arrivalPos="204.72" arrivalSpeed="14.19" duration="65.00" routeLength="832.89" waitingTime="0.00" waitingCount="0" stopTime="0.00" timeLoss="7.69" rerouteNo="0" devices="tripinfo_3" vType="DEFAULT_VEHTYPE" speedFactor="1.07" vaporized=""/>
    <tripinfo id="6" depart="13.00" departLane="-218680176#1_0" departPos="5.10" departSpeed="0.00" departDelay="0.29" arrival="80.00" arrivalLane="153964138#0_2" arrivalPos="337.99" arrivalSpeed="15.71" duration="67.00" routeLength="462.27" waitingTime="26.00" waitingCount="1" stopTime="0.00" timeLoss="35.83" rerouteNo="0" devices="tripinfo_6" vType="DEFAULT_VEHTYPE" speedFactor="0.98" vaporized=""/>
    <tripinfo id="10" depart="23.00" departLane="978867529_0" departPos="5.10" departSpeed="0.00" departDelay="1.82" arrival="114.00" arrivalLane="231177697#0_1" arrivalPos="74.44" arrivalSpeed="13.13" duration="91.00" routeLength="437.06" waitingTime="51.00" waitingCount="1" stopTime="0.00" timeLoss="62.01" rerouteNo="0" devices="tripinfo_10" vType="DEFAULT_VEHTYPE" speedFactor="1.00" vaporized=""/>
    <tripinfo id="15" depart="33.00" departLane="978867529_0" departPos="5.10" departSpeed="0.00" departDelay="1.24" arrival="116.00" arrivalLane="231177697#0_1" arrivalPos="74.44" arrivalSpeed="12.55" duration="83.00" routeLength="437.06" waitingTime="42.00" waitingCount="1" stopTime="0.00" timeLoss="53.55" rerouteNo="0" devices="tripinfo_15" vType="DEFAULT_VEHTYPE" speedFactor="0.98" vaporized=""/>
    <tripinfo id="32" depart="68.00" departLane="978867529_0" departPos="5.10" departSpeed="0.00" departDelay="0.24" arrival="117.00" arrivalLane="231177697#0_1" arrivalPos="74.44" arrivalSpeed="14.56" duration="49.00" routeLength="437.06" waitingTime="11.00" waitingCount="1" stopTime="0.00" timeLoss="23.10" rerouteNo="0" devices="tripinfo_32" vType="DEFAULT_VEHTYPE" speedFactor="1.10" vaporized=""/>
    <tripinfo id="30" depart="64.00" departLane="E8_0" departPos="5.10" departSpeed="0.00" departDelay="0.47" arrival="120.00" arrivalLane="226276377#0_1" arrivalPos="135.52" arrivalSpeed="15.01" duration="56.00" routeLength="784.51" waitingTime="0.00" waitingCount="0" stopTime="0.00" timeLoss="5.10" rerouteNo="0" devices="tripinfo_30" vType="DEFAULT_VEHTYPE" speedFactor="1.14" vaporized=""/>
    <tripinfo id="4" depart="9.00" departLane="-661251539_0" departPos="5.10" departSpeed="0.00" departDelay="0.53" arrival="121.00" arrivalLane="-256961141#1_1" arrivalPos="204.72" arrivalSpeed="15.36" duration="112.00" routeLength="872.91" waitingTime="46.00" waitingCount="1" stopTime="0.00" timeLoss="59.20" rerouteNo="0" devices="tripinfo_4" vType="DEFAULT_VEHTYPE" speedFactor="1.17" vaporized=""/>
    <tripinfo id="12" depart="26.00" departLane="E8_0" departPos="5.10" departSpeed="0.00" departDelay="0.59" arrival="123.00" arrivalLane="210831347#0_1" arrivalPos="149.88" arrivalSpeed="14.46" duration="97.00" routeLength="1367.17" waitingTime="0.00" waitingCount="0" stopTime="0.00" timeLoss="10.63" rerouteNo="0" devices="tripinfo_12" vType="DEFAULT_VEHTYPE" speedFactor="1.10" vaporized=""/>
    <tripinfo id="40" depart="85.00" departLane="65746828#0_0" departPos="5.10" departSpeed="0.00" departDelay="0.29" arrival="124.00" arrivalLane="210831345#1_0" arrivalPos="264.29" arrivalSpeed="12.55" duration="39.00" routeLength="446.75" waitingTime="0.00" waitingCount="0" stopTime="0.00" timeLoss="4.16" rerouteNo="0" devices="tripinfo_40" vType="DEFAULT_VEHTYPE" speedFactor="0.93" vaporized=""/>
    <tripinfo id="1" depart="3.00" departLane="-231177697#2_0" departPos="5.10" departSpeed="0.00" departDelay="0.88" arrival="126.00" arrivalLane="210831345#1_1" arrivalPos="264.29" arrivalSpeed="15.05" duration="123.00" routeLength="696.92" waitingTime="60.00" waitingCount="2" stopTime="0.00" timeLoss="76.35" rerouteNo="0" devices="tripinfo_1" vType="DEFAULT_VEHTYPE" speedFactor="1.10" vaporized=""/>
    <tripinfo id="0" depart="0.00" departLane="65746828#0_0" departPos="5.10" departSpeed="0.00" departDelay="0.00" arrival="127.00" arrivalLane="-256961141#1_1" arrivalPos="204.72" arrivalSpeed="12.14" duration="127.00" routeLength="931.50" waitingTime="41.00" waitingCount="2" stopTime="0.00" timeLoss="59.45" rerouteNo="0" devices="tripinfo_0" vType="DEFAULT_VEHTYPE" speedFactor="0.93" vaporized=""/>
    <tripinfo id="13" depart="28.00" departLane="-218680176#1_0" departPos="5.10" departSpeed="0.00" departDelay="0.47" arrival="129.00" arrivalLane="-256961141#1_1" arrivalPos="204.72" arrivalSpeed="12.76" duration="101.00" routeLength="1207.38" waitingTime="0.00" waitingCount="0" stopTime="0.00" timeLoss="13.73" rerouteNo="0" devices="tripinfo_13" vType="DEFAULT_VEHTYPE" speedFactor="0.94" vaporized=""/>
    <tripinfo id="21" depart="45.00" departLane="-231177697#2_0" departPos="5.10" departSpeed="0.00" departDelay="0.53" arrival="131.00" arrivalLane="210831345#1_1" arrivalPos="264.29" arrivalSpeed="13.10" duration="86.00" routeLength="696.92" waitingTime="20.00" waitingCount="1" stopTime="0.00" timeLoss="32.56" rerouteNo="0" devices="tripinfo_21" vType="DEFAULT_VEHTYPE" speedFactor="0.97" vaporized=""/>
    <tripinfo id="34" depart="72.00" departLane="-231177697#2_0" departPos="5.10" departSpeed="0.00" departDelay="0.00" arrival="132.00" arrivalLane="210831345#1_1" arrivalPos="264.29" arrivalSpeed="13.59" duration="60.00" routeLength="696.92" waitingTime="0.00" waitingCount="0" stopTime="0.00" timeLoss="8.13" rerouteNo="0" devices="tripinfo_34" vType="DEFAULT_VEHTYPE" speedFactor="0.99" vaporized=""/>
    <tripinfo id="35" depart="75.00" departLane="-226276377#1_0" departPos="5.10" departSpeed="0.00" departDelay="0.88" arrival="136.00" arrivalLane="450554042#0_0" arrivalPos="622.66" arrivalSpeed="14.43" duration="61.00" routeLength="763.53" waitingTime="0.00" waitingCount="0" stopTime="0.00" timeLoss="7.23" rerouteNo="0" devices="tripinfo_35" vType="DEFAULT_VEHTYPE" speedFactor="0.90" vaporized=""/>
    <tripinfo id="39" depart="83.00" departLane="-231177697#2_0" departPos="5.10" departSpeed="0.00" departDelay="0.41" arrival="141.00" arrivalLane="210831345#1_1" arrivalPos="264.29" arrivalSpeed="13.29" duration="58.00" routeLength="696.92" waitingTime="0.00" waitingCount="0" stopTime="0.00" timeLoss="4.85" rerouteNo="0" devices="tripinfo_39" vType="DEFAULT_VEHTYPE" speedFactor="0.96" vaporized=""/>
    <tripinfo id="2" depart="5.00" departLane="666135205#0_0" departPos="5.10" departSpeed="0.00" departDelay="0.76" arrival="162.00" arrivalLane="231177697#0_0" arrivalPos="74.44" arrivalSpeed="10.93" duration="157.00" routeLength="649.17" waitingTime="88.00" waitingCount="2" stopTime="0.00" timeLoss="101.71" rerouteNo="0" devices="tripinfo_2" vType="DEFAULT_VEHTYPE" speedFactor="0.87" vaporized=""/>
    <tripinfo id="61" depart="130.00" departLane="978867529_0" departPos="5.10" departSpeed="0.00" departDelay="0.82" arrival="168.00" arrivalLane="218680176#0_0" arrivalPos="98.94" arrivalSpeed="13.59" duration="38.00" routeLength="442.15" waitingTime="0.00" waitingCount="0" stopTime="0.00" timeLoss="8.97" rerouteNo="0" devices="tripinfo_61" vType="DEFAULT_VEHTYPE" speedFactor="0.99" vaporized=""/>
    <tripinfo id="11" depart="24.00" departLane="-661251539_0" departPos="5.10" departSpeed="0.00" departDelay="0.71" arrival="181.00" arrivalLane="153964138#0_0" arrivalPos="337.99" arrivalSpeed="14.03" duration="157.00" routeLength="1239.04" waitingTime="46.00" waitingCount="1" stopTime="0.00" timeLoss="61.23" rerouteNo="0" devices="tripinfo_11" vType="DEFAULT_VEHTYPE" speedFactor="0.90" vaporized=""/>
    <tripinfo id="51" depart="108.00" departLane="666135205#0_0" departPos="5.10" departSpeed="0.00" departDelay="0.00" arrival="190.00" arrivalLane="218680176#0_1" arrivalPos="98.94" arrivalSpeed="11.90" duration="82.00" routeLength="693.09" waitingTime="11.00" waitingCount="1" stopTime="0.00" timeLoss="22.37" rerouteNo="0" devices="tripinfo_51" vType="DEFAULT_VEHTYPE" speedFactor="0.86" vaporized=""/>
    <tripinfo id="60" depart="128.00" departLane="666135205#0_0" departPos="5.10" departSpeed="0.00" departDelay="0.94" arrival="192.00" arrivalLane="218680176#0_1" arrivalPos="98.94" arrivalSpeed="12.50" duration="64.00" routeLength="693.09" waitingTime="0.00" waitingCount="0" stopTime="0.00" timeLoss="9.92" rerouteNo="0" devices="tripinfo_60" vType="DEFAULT_VEHTYPE" speedFactor="0.96" vaporized=""/>
    <tripinfo id="16" depart="34.00" departLane="256961141#0_0" departPos="5.10" departSpeed="0.00" departDelay="0.12" arrival="196.00" arrivalLane="450554042#0_0" arrivalPos="622.66" arrivalSpeed="17.33" duration="162.00" routeLength="853.74" waitingTime="99.00" waitingCount="1" stopTime="0.00" timeLoss="109.21" rerouteNo="0" devices="tripinfo_16" vType="DEFAULT_VEHTYPE" speedFactor="1.05" vaporized=""/>
    <tripinfo id="54" depart="115.00" departLane="256961141#0_0" departPos="5.10" departSpeed="0.00" departDelay="0.65" arrival="204.00" arrivalLane="450554042#0_0" arrivalPos="622.66" arrivalSpeed="14.03" duration="89.00" routeLength="853.74" waitingTime="18.00" waitingCount="1" stopTime="0.00" timeLoss="28.65" rerouteNo="0" devices="tripinfo_54" vType="DEFAULT_VEHTYPE" speedFactor="0.90" vaporized=""/>
    <tripinfo id="7" depart="15.00" departLane="65746828#0_0" departPos="5.10" departSpeed="0.00" departDelay="0.18" arrival="213.00" arrivalLane="218680176#0_1" arrivalPos="98.94" arrivalSpeed="13.64" duration="198.00" routeLength="602.71" waitingTime="145.00" waitingCount="1" stopTime="0.00" timeLoss="156.65" rerouteNo="0" devices="tripinfo_7" vType="DEFAULT_VEHTYPE" speedFactor="1.07" vaporized=""/>
    <tripinfo id="75" depart="159.00" departLane="E8_0" departPos="5.10" departSpeed="0.00" departDelay="0.18" arrival="219.00" arrivalLane="226276377#0_1" arrivalPos="135.52" arrivalSpeed="13.52" duration="60.00" routeLength="784.51" waitingTime="0.00" waitingCount="0" stopTime="0.00" timeLoss="6.45" rerouteNo="0" devices="tripinfo_75" vType="DEFAULT_VEHTYPE" speedFactor="1.07" vaporized=""/>
    <tripinfo id="46" depart="98.00" departLane="978867529_0" departPos="5.10" departSpeed="0.00" departDelay="0.59" arrival="221.00" arrivalLane="210831347#0_0" arrivalPos="149.88" arrivalSpeed="13.39" duration="123.00" routeLength="812.56" waitingTime="49.00" waitingCount="2" stopTime="0.00" timeLoss="66.57" rerouteNo="0" devices="tripinfo_46" vType="DEFAULT_VEHTYPE" speedFactor="1.00" vaporized=""/>
    <tripinfo id="79" depart="168.00" departLane="-231177697#2_0" departPos="5.10" departSpeed="0.00" departDelay="0.71" arrival="225.00" arrivalLane="153964138#0_0" arrivalPos="337.99" arrivalSpeed="14.81" duration="57.00" routeLength="417.38" waitingTime="19.00" waitingCount="1" stopTime="0.00" timeLoss="27.33" rerouteNo="0" devices="tripinfo_79" vType="DEFAULT_VEHTYPE" speedFactor="0.93" vaporized=""/>
    <tripinfo id="74" depart="157.00" departLane="-226276377#1_0" departPos="5.10" departSpeed="0.00" departDelay="0.29" arrival="237.00" arrivalLane="210831345#1_0" arrivalPos="264.29" arrivalSpeed="12.27" duration="80.00" routeLength="977.93" waitingTime="0.00" waitingCount="0" stopTime="0.00" timeLoss="8.27" rerouteNo="0" devices="tripinfo_74" vType="DEFAULT_VEHTYPE" speedFactor="0.94" vaporized=""/>
    <tripinfo id="77" depart="164.00" departLane="-226276377#1_0" departPos="5.10" departSpeed="0.00" departDelay="0.94" arrival="245.00" arrivalLane="210831345#1_0" arrivalPos="264.29" arrivalSpeed="12.69" duration="81.00" routeLength="977.93" waitingTime="0.00" waitingCount="0" stopTime="0.00" timeLoss="9.05" rerouteNo="0" devices="tripinfo_77" vType="DEFAULT_VEHTYPE" speedFactor="0.94" vaporized=""/>
    <tripinfo id="64" depart="136.00" departLane="978867529_0" departPos="5.10" departSpeed="0.00" departDelay="0.47" arrival="250.00" arrivalLane="39907424_0" arrivalPos="316.44" arrivalSpeed="13.62" duration="114.00" routeLength="1216.15" waitingTime="17.00" waitingCount="1" stopTime="0.00" timeLoss="34.42" rerouteNo="0" devices="tripinfo_64" vType="DEFAULT_VEHTYPE" speedFactor="1.03" vaporized=""/>
    <tripinfo id="31" depart="66.00" departLane="65746828#0_0" departPos="5.10" departSpeed="0.00" departDelay="0.35" arrival="265.00" arrivalLane="231177697#0_0" arrivalPos="74.44" arrivalSpeed="12.18" duration="199.00" routeLength="558.79" waitingTime="140.00" waitingCount="2" stopTime="0.00" timeLoss="155.09" rerouteNo="0" devices="tripinfo_31" vType="DEFAULT_VEHTYPE" speedFactor="0.95" vaporized=""/>
    <tripinfo id="27" depart="58.00" departLane="65746828#0_0" departPos="5.10" departSpeed="0.00" departDelay="0.82" arrival="266.00" arrivalLane="226276377#0_0" arrivalPos="135.52" arrivalSpeed="13.43" duration="208.00" routeLength="841.69" waitingTime="133.00" waitingCount="2" stopTime="0.00" timeLoss="150.87" rerouteNo="0" devices="tripinfo_27" vType="DEFAULT_VEHTYPE" speedFactor="0.98" vaporized=""/>
    <tripinfo id="28" depart="60.00" departLane="-226276377#1_0" departPos="5.10" departSpeed="0.00" departDelay="0.71" arrival="270.00" arrivalLane="231177697#0_0" arrivalPos="74.44" arrivalSpeed="12.13" duration="210.00" routeLength="1114.63" waitingTime="101.00" waitingCount="3" stopTime="0.00" timeLoss="124.06" rerouteNo="0" devices="tripinfo_28" vType="DEFAULT_VEHTYPE" speedFactor="0.90" vaporized=""/>
    <tripinfo id="78" depart="166.00" departLane="-661251539_0" departPos="5.10" departSpeed="0.00" departDelay="0.82" arrival="270.00" arrivalLane="226276377#0_0" arrivalPos="135.52" arrivalSpeed="12.99" duration="104.00" routeLength="783.10" waitingTime="28.00" waitingCount="2" stopTime="0.00" timeLoss="48.47" rerouteNo="0" devices="tripinfo_78" vType="DEFAULT_VEHTYPE" speedFactor="0.99" vaporized=""/>
    <tripinfo id="14" depart="30.00" departLane="978867529_0" departPos="5.10" departSpeed="0.00" departDelay="0.35" arrival="271.00" arrivalLane="226276377#0_0" arrivalPos="135.52" arrivalSpeed="14.93" duration="241.00" routeLength="1369.55" waitingTime="126.00" waitingCount="3" stopTime="0.00" timeLoss="160.12" rerouteNo="0" devices="tripinfo_14" vType="DEFAULT_VEHTYPE" speedFactor="1.11" vaporized=""/>
    <tripinfo id="91" depart="193.00" departLane="E8_0" departPos="5.10" departSpeed="0.00" departDelay="0.29" arrival="272.00" arrivalLane="-256961141#1_0" arrivalPos="204.72" arrivalSpeed="15.09" duration="79.00" routeLength="832.89" waitingTime="13.00" waitingCount="1" stopTime="0.00" timeLoss="23.50" rerouteNo="0" devices="tripinfo_91" vType="DEFAULT_VEHTYPE" speedFactor="1.09" vaporized=""/>
    <tripinfo id="19" depart="42.00" departLane="978867529_0" departPos="5.10" departSpeed="0.00" departDelay="1.76" arrival="274.00" arrivalLane="226276377#0_0" arrivalPos="135.52" arrivalSpeed="15.27" duration="232.00" routeLength="1369.55" waitingTime="115.00" waitingCount="3" stopTime="0.00" timeLoss="150.24" rerouteNo="0" devices="tripinfo_19" vType="DEFAULT_VEHTYPE" speedFactor="1.10" vaporized=""/>
    <tripinfo id="18" depart="39.00" departLane="978867529_0" departPos="5.10" departSpeed="0.00" departDelay="0.88" arrival="276.00" arrivalLane="226276377#0_0" arrivalPos="135.52" arrivalSpeed="12.98" duration="237.00" routeLength="1369.55" waitingTime="116.00" waitingCount="3" stopTime="0.00" timeLoss="148.97" rerouteNo="0" devices="tripinfo_18" vType="DEFAULT_VEHTYPE" speedFactor="1.02" vaporized=""/>
    <tripinfo id="56" depart="119.00" departLane="256961141#0_0" departPos="5.10" departSpeed="0.00" departDelay="0.41" arrival="277.00" arrivalLane="153964138#0_1" arrivalPos="337.99" arrivalSpeed="16.83" duration="158.00" routeLength="1439.25" waitingTime="40.00" waitingCount="3" stopTime="0.00" timeLoss="63.68" rerouteNo="0" devices="tripinfo_56" vType="DEFAULT_VEHTYPE" speedFactor="1.02" vaporized=""/>
    <tripinfo id="69" depart="147.00" departLane="666135205#0_0" departPos="5.10" departSpeed="0.00" departDelay="0.88" arrival="278.00" arrivalLane="153964138#0_0" arrivalPos="337.99" arrivalSpeed="15.75" duration="131.00" routeLength="924.87" waitingTime="55.00" waitingCount="1" stopTime="0.00" timeLoss="68.93" rerouteNo="0" devices="tripinfo_69" vType="DEFAULT_VEHTYPE" speedFactor="1.01" vaporized=""/>
    <tripinfo id="25" depart="53.00" departLane="-661251539_0" departPos="5.10" departSpeed="0.00" departDelay="0.06" arrival="280.00" arrivalLane="153964138#0_1" arrivalPos="337.99" arrivalSpeed="18.76" duration="227.00" routeLength="1239.04" waitingTime="121.00" waitingCount="3" stopTime="0.00" timeLoss="151.63" rerouteNo="0" devices="tripinfo_25" vType="DEFAULT_VEHTYPE" speedFactor="1.14" vaporized=""/>
    <tripinfo id="59" depart="125.00" departLane="65746828#0_0" departPos="5.10" departSpeed="0.00" departDelay="0.06" arrival="280.00" arrivalLane="153964138#0_0" arrivalPos="337.99" arrivalSpeed="14.66" duration="155.00" routeLength="834.49" waitingTime="77.00" waitingCount="2" stopTime="0.00" timeLoss="93.12" rerouteNo="0" devices="tripinfo_59" vType="DEFAULT_VEHTYPE" speedFactor="0.91" vaporized=""/>
    <tripinfo id="72" depart="153.00" departLane="-661251539_0" departPos="5.10" departSpeed="0.00" departDelay="0.53" arrival="281.00" arrivalLane="153964138#0_2" arrivalPos="337.99" arrivalSpeed="15.90" duration="128.00" routeLength="1239.04" waitingTime="21.00" waitingCount="2" stopTime="0.00" timeLoss="39.96" rerouteNo="0" devices="tripinfo_72" vType="DEFAULT_VEHTYPE" speedFactor="0.98" vaporized=""/>
    <tripinfo id="86" depart="183.00" departLane="256961141#0_0" departPos="5.10" departSpeed="0.00" departDelay="0.88" arrival="283.00" arrivalLane="39907424_0" arrivalPos="316.44" arrivalSpeed="12.38" duration="100.00" routeLength="873.95" waitingTime="21.00" waitingCount="1" stopTime="0.00" timeLoss="35.62" rerouteNo="0" devices="tripinfo_86" vType="DEFAULT_VEHTYPE" speedFactor="0.95" vaporized=""/>
    <tripinfo id="42" depart="89.00" departLane="-661251539_0" departPos="5.10" departSpeed="0.00" departDelay="0.06" arrival="284.00" arrivalLane="153964138#0_0" arrivalPos="337.99" arrivalSpeed="14.74" duration="195.00" routeLength="1239.04" waitingTime="84.00" waitingCount="2" stopTime="0.00" timeLoss="103.26" rerouteNo="0" devices="tripinfo_42" vType="DEFAULT_VEHTYPE" speedFactor="0.94" vaporized=""/>
    <tripinfo id="50" depart="106.00" departLane="-218680176#1_0" departPos="5.10" departSpeed="0.00" departDelay="0.12" arrival="290.00" arrivalLane="231177697#0_0" arrivalPos="74.44" arrivalSpeed="14.39" duration="184.00" routeLength="205.97" waitingTime="140.00" waitingCount="5" stopTime="0.00" timeLoss="169.83" rerouteNo="0" devices="tripinfo_50" vType="DEFAULT_VEHTYPE" speedFactor="1.07" vaporized=""/>
    <tripinfo id="84" depart="178.00" departLane="-226276377#1_0" departPos="5.10" departSpeed="0.00" departDelay="0.12" arrival="290.00" arrivalLane="153964138#0_0" arrivalPos="337.99" arrivalSpeed="13.85" duration="112.00" routeLength="1390.33" waitingTime="0.00" waitingCount="0" stopTime="0.00" timeLoss="8.82" rerouteNo="0" devices="tripinfo_84" vType="DEFAULT_VEHTYPE" speedFactor="0.90" vaporized=""/>
    <tripinfo id="29" depart="63.00" departLane="-226276377#1_0" departPos="5.10" departSpeed="0.00" departDelay="1.59" arrival="295.00" arrivalLane="210831347#0_1" arrivalPos="149.88" arrivalSpeed="13.25" duration="232.00" routeLength="888.52" waitingTime="152.00" waitingCount="2" stopTime="0.00" timeLoss="168.29" rerouteNo="0" devices="tripinfo_29" vType="DEFAULT_VEHTYPE" speedFactor="0.97" vaporized=""/>
    <tripinfo id="26" depart="56.00" departLane="-231177697#2_0" departPos="5.10" departSpeed="0.00" departDelay="0.94" arrival="296.00" arrivalLane="450554042#0_0" arrivalPos="622.66" arrivalSpeed="15.65" duration="240.00" routeLength="1613.58" waitingTime="118.00" waitingCount="2" stopTime="0.00" timeLoss="137.63" rerouteNo="0" devices="tripinfo_26" vType="DEFAULT_VEHTYPE" speedFactor="1.01" vaporized=""/>
    <tripinfo id="53" depart="113.00" departLane="-226276377#1_0" departPos="5.10" departSpeed="0.00" departDelay="0.76" arrival="297.00" arrivalLane="210831347#0_1" arrivalPos="149.88" arrivalSpeed="11.92" duration="184.00" routeLength="888.52" waitingTime="101.00" waitingCount="2" stopTime="0.00" timeLoss="118.96" rerouteNo="0" devices="tripinfo_53" vType="DEFAULT_VEHTYPE" speedFactor="0.94" vaporized=""/>
    <tripinfo id="68" depart="144.00" departLane="-218680176#1_0" departPos="5.10" departSpeed="0.00" departDelay="0.00" arrival="298.00" arrivalLane="231177697#0_0" arrivalPos="74.44" arrivalSpeed="13.59" duration="154.00" routeLength="205.97" waitingTime="107.00" waitingCount="4" stopTime="0.00" timeLoss="138.43" rerouteNo="0" devices="tripinfo_68" vType="DEFAULT_VEHTYPE" speedFactor="0.99" vaporized=""/>
    <tripinfo id="66" depart="140.00" departLane="978867529_0" departPos="5.10" departSpeed="0.00" departDelay="0.24" arrival="299.00" arrivalLane="450554042#0_0" arrivalPos="622.66" arrivalSpeed="15.29" duration="159.00" routeLength="1868.58" waitingTime="17.00" waitingCount="2" stopTime="0.00" timeLoss="38.76" rerouteNo="0" devices="tripinfo_66" vType="DEFAULT_VEHTYPE" speedFactor="0.98" vaporized=""/>
    <tripinfo id="106" depart="225.00" departLane="256961141#0_0" departPos="5.10" departSpeed="0.00" departDelay="0.53" arrival="299.00" arrivalLane="210831347#0_1" arrivalPos="149.88" arrivalSpeed="14.78" duration="74.00" routeLength="937.44" waitingTime="0.00" waitingCount="0" stopTime="0.00" timeLoss="15.92" rerouteNo="0" devices="tripinfo_106" vType="DEFAULT_VEHTYPE" speedFactor="1.12" vaporized=""/>
    <tripinfo id="41" depart="88.00" departLane="65746828#0_0" departPos="5.10" departSpeed="0.00" departDelay="1.18" arrival="300.00" arrivalLane="450554042#0_0" arrivalPos="622.66" arrivalSpeed="14.58" duration="212.00" routeLength="1340.72" waitingTime="101.00" waitingCount="2" stopTime="0.00" timeLoss="120.60" rerouteNo="0" devices="tripinfo_41" vType="DEFAULT_VEHTYPE" speedFactor="0.92" vaporized=""/>
    <tripinfo id="45" depart="97.00" departLane="-218680176#1_0" departPos="5.10" departSpeed="0.00" departDelay="1.71" arrival="301.00" arrivalLane="226276377#0_0" arrivalPos="135.52" arrivalSpeed="12.76" duration="204.00" routeLength="1117.57" waitingTime="98.00" waitingCount="4" stopTime="0.00" timeLoss="125.40" rerouteNo="0" devices="tripinfo_45" vType="DEFAULT_VEHTYPE" speedFactor="0.97" vaporized=""/>
    <tripinfo id="117" depart="248.00" departLane="-231177697#2_0" departPos="5.10" departSpeed="0.00" departDelay="0.24" arrival="301.00" arrivalLane="153964138#0_0" arrivalPos="337.99" arrivalSpeed="18.62" duration="53.00" routeLength="417.38" waitingTime="17.00" waitingCount="1" stopTime="0.00" timeLoss="29.21" rerouteNo="0" devices="tripinfo_117" vType="DEFAULT_VEHTYPE" speedFactor="1.16" vaporized=""/>
    <tripinfo id="23" depart="50.00" departLane="-218680176#1_0" departPos="5.10" departSpeed="0.00" departDelay="1.29" arrival="303.00" arrivalLane="210831345#1_0" arrivalPos="264.29" arrivalSpeed="16.22" duration="253.00" routeLength="699.94" waitingTime="187.00" waitingCount="3" stopTime="0.00" timeLoss="212.18" rerouteNo="0" devices="tripinfo_23" vType="DEFAULT_VEHTYPE" speedFactor="1.25" vaporized=""/>
    <tripinfo id="22" depart="47.00" departLane="-218680176#1_0" departPos="5.10" departSpeed="0.00" departDelay="0.41" arrival="305.00" arrivalLane="210831345#1_0" arrivalPos="264.29" arrivalSpeed="12.84" duration="258.00" routeLength="699.94" waitingTime="187.00" waitingCount="2" stopTime="0.00" timeLoss="202.14" rerouteNo="0" devices="tripinfo_22" vType="DEFAULT_VEHTYPE" speedFactor="0.93" vaporized=""/>
    <tripinfo id="36" depart="77.00" departLane="978867529_0" departPos="5.10" departSpeed="0.00" departDelay="0.76" arrival="306.00" arrivalLane="210831345#1_1" arrivalPos="264.29" arrivalSpeed="14.77" duration="229.00" routeLength="951.92" waitingTime="147.00" waitingCount="2" stopTime="0.00" timeLoss="170.34" rerouteNo="0" devices="tripinfo_36" vType="DEFAULT_VEHTYPE" speedFactor="1.11" vaporized=""/>
    <tripinfo id="92" depart="195.00" departLane="-661251539_0" departPos="5.10" departSpeed="0.00" departDelay="0.18" arrival="307.00" arrivalLane="210831347#0_1" arrivalPos="149.88" arrivalSpeed="10.89" duration="112.00" routeLength="731.18" waitingTime="34.00" waitingCount="2" stopTime="0.00" timeLoss="46.54" rerouteNo="0" devices="tripinfo_92" vType="DEFAULT_VEHTYPE" speedFactor="0.82" vaporized=""/>
    <tripinfo id="49" depart="105.00" departLane="E8_0" departPos="5.10" departSpeed="0.00" departDelay="1.24" arrival="310.00" arrivalLane="39907424_0" arrivalPos="316.44" arrivalSpeed="13.88" duration="205.00" routeLength="1303.68" waitingTime="99.00" waitingCount="2" stopTime="0.00" timeLoss="116.63" rerouteNo="0" devices="tripinfo_49" vType="DEFAULT_VEHTYPE" speedFactor="1.02" vaporized=""/>
    <tripinfo id="55" depart="117.00" departLane="978867529_0" departPos="5.10" departSpeed="0.00" departDelay="0.53" arrival="310.00" arrivalLane="210831345#1_1" arrivalPos="264.29" arrivalSpeed="12.30" duration="193.00" routeLength="951.92" waitingTime="105.00" waitingCount="2" stopTime="0.00" timeLoss="124.94" rerouteNo="0" devices="tripinfo_55" vType="DEFAULT_VEHTYPE" speedFactor="0.97" vaporized=""/>
    <tripinfo id="57" depart="121.00" departLane="E8_0" departPos="5.10" departSpeed="0.00" departDelay="0.29" arrival="312.00" arrivalLane="39907424_0" arrivalPos="316.44" arrivalSpeed="14.54" duration="191.00" routeLength="1303.68" waitingTime="85.00" waitingCount="2" stopTime="0.00" timeLoss="105.86" rerouteNo="0" devices="tripinfo_57" vType="DEFAULT_VEHTYPE" speedFactor="1.07" vaporized=""/>
    <tripinfo id="93" depart="197.00" departLane="978867529_0" departPos="5.10" departSpeed="0.00" departDelay="0.06" arrival="312.00" arrivalLane="210831345#1_1" arrivalPos="264.29" arrivalSpeed="12.94" duration="115.00" routeLength="951.92" waitingTime="31.00" waitingCount="2" stopTime="0.00" timeLoss="48.82" rerouteNo="0" devices="tripinfo_93" vType="DEFAULT_VEHTYPE" speedFactor="1.00" vaporized=""/>
    <tripinfo id="119" depart="252.00" departLane="65746828#0_0" departPos="5.10" departSpeed="0.00" departDelay="0.00" arrival="312.00" arrivalLane="226276377#0_0" arrivalPos="135.52" arrivalSpeed="15.21" duration="60.00" routeLength="841.69" waitingTime="0.00" waitingCount="0" stopTime="0.00" timeLoss="10.37" rerouteNo="0" devices="tripinfo_119" vType="DEFAULT_VEHTYPE" speedFactor="1.15" vaporized=""/>
    <tripinfo id="90" depart="191.00" departLane="666135205#0_0" departPos="5.10" departSpeed="0.00" departDelay="0.41" arrival="313.00" arrivalLane="231177697#0_0" arrivalPos="74.44" arrivalSpeed="12.10" duration="122.00" routeLength="649.17" waitingTime="54.00" waitingCount="2" stopTime="0.00" timeLoss="67.60" rerouteNo="0" devices="tripinfo_90" vType="DEFAULT_VEHTYPE" speedFactor="0.89" vaporized=""/>
    <tripinfo id="99" depart="210.00" departLane="E8_0" departPos="5.10" departSpeed="0.00" departDelay="0.35" arrival="314.00" arrivalLane="39907424_0" arrivalPos="316.44" arrivalSpeed="14.87" duration="104.00" routeLength="1303.68" waitingTime="0.00" waitingCount="0" stopTime="0.00" timeLoss="21.69" rerouteNo="0" devices="tripinfo_99" vType="DEFAULT_VEHTYPE" speedFactor="1.11" vaporized=""/>
    <tripinfo id="120" depart="255.00" departLane="-661251539_0" departPos="5.10" departSpeed="0.00" departDelay="0.88" arrival="332.00" arrivalLane="226276377#0_0" arrivalPos="135.52" arrivalSpeed="14.38" duration="77.00" routeLength="783.10" waitingTime="11.00" waitingCount="1" stopTime="0.00" timeLoss="27.41" rerouteNo="0" devices="tripinfo_120" vType="DEFAULT_VEHTYPE" speedFactor="1.10" vaporized=""/>
    <tripinfo id="141" depart="299.00" departLane="65746828#0_0" departPos="5.10" departSpeed="0.00" departDelay="0.41" arrival="344.00" arrivalLane="210831345#1_0" arrivalPos="264.29" arrivalSpeed="10.52" duration="45.00" routeLength="446.75" waitingTime="0.00" waitingCount="0" stopTime="0.00" timeLoss="4.43" rerouteNo="0" devices="tripinfo_141" vType="DEFAULT_VEHTYPE" speedFactor="0.80" vaporized=""/>