<?xml version="1.0" encoding="UTF-8"?>

<!-- generated on 2024-09-03 02:43:36 by Eclipse SUMO sumo Version 1.20.0
<configuration xmlns:xsi="http://www.w3.org/2001/XMLSchema-instance" xsi:noNamespaceSchemaLocation="http://sumo.dlr.de/xsd/sumoConfiguration.xsd">

    <input>
        <net-file value="c:\self\School\Master\Disertation\code\RESCO\resco_benchmark\environments/unirii/osm.net.xml.gz"/>
        <route-files value="c:\self\School\Master\Disertation\code\RESCO\resco_benchmark\environments/unirii/osm.passenger.trips.xml"/>
        <additional-files value="c:\self\School\Master\Disertation\code\RESCO\resco_benchmark\environments/unirii/osm.poly.xml.gz"/>
    </input>

    <output>
        <tripinfo-output value="C:\self\School\Master\Disertation\code\RESCO\results\IA2C-tr0-unirii-0-drq_norm-wait_norm\tripinfo_43.xml"/>
        <tripinfo-output.write-unfinished value="true"/>
    </output>

    <processing>
        <ignore-route-errors value="true"/>
        <time-to-teleport value="-1"/>
    </processing>

    <routing>
        <device.rerouting.adaptation-steps value="18"/>
        <device.rerouting.adaptation-interval value="10"/>
    </routing>

    <report>
        <verbose value="true"/>
        <no-warnings value="True"/>
        <duration-log.statistics value="true"/>
        <no-step-log value="True"/>
    </report>

    <traci_server>
        <remote-port value="52267"/>
    </traci_server>

    <random_number>
        <random value="true"/>
    </random_number>

    <gui_only>
        <gui-settings-file value="c:\self\School\Master\Disertation\code\RESCO\resco_benchmark\environments/unirii/osm.view.xml"/>
    </gui_only>

</configuration>
-->

<tripinfos xmlns:xsi="http://www.w3.org/2001/XMLSchema-instance" xsi:noNamespaceSchemaLocation="http://sumo.dlr.de/xsd/tripinfo_file.xsd">
    <tripinfo id="10" depart="23.00" departLane="978867529_0" departPos="5.10" departSpeed="0.00" departDelay="1.82" arrival="63.00" arrivalLane="231177697#0_1" arrivalPos="74.44" arrivalSpeed="13.73" duration="40.00" routeLength="437.06" waitingTime="2.00" waitingCount="1" stopTime="0.00" timeLoss="13.74" rerouteNo="0" devices="tripinfo_10" vType="DEFAULT_VEHTYPE" speedFactor="1.08" vaporized=""/>
    <tripinfo id="15" depart="33.00" departLane="978867529_0" departPos="5.10" departSpeed="0.00" departDelay="1.24" arrival="65.00" arrivalLane="231177697#0_1" arrivalPos="74.44" arrivalSpeed="15.36" duration="32.00" routeLength="437.06" waitingTime="0.00" waitingCount="0" stopTime="0.00" timeLoss="6.43" rerouteNo="0" devices="tripinfo_15" vType="DEFAULT_VEHTYPE" speedFactor="1.13" vaporized=""/>
    <tripinfo id="16" depart="34.00" departLane="256961141#0_0" departPos="5.10" departSpeed="0.00" departDelay="0.12" arrival="97.00" arrivalLane="450554042#0_0" arrivalPos="622.66" arrivalSpeed="15.34" duration="63.00" routeLength="853.74" waitingTime="0.00" waitingCount="0" stopTime="0.00" timeLoss="6.12" rerouteNo="0" devices="tripinfo_16" vType="DEFAULT_VEHTYPE" speedFactor="0.97" vaporized=""/>
    <tripinfo id="6" depart="13.00" departLane="-218680176#1_0" departPos="5.10" departSpeed="0.00" departDelay="0.29" arrival="106.00" arrivalLane="153964138#0_2" arrivalPos="337.99" arrivalSpeed="15.40" duration="93.00" routeLength="462.27" waitingTime="51.00" waitingCount="1" stopTime="0.00" timeLoss="60.95" rerouteNo="0" devices="tripinfo_6" vType="DEFAULT_VEHTYPE" speedFactor="0.93" vaporized=""/>
    <tripinfo id="35" depart="75.00" departLane="-226276377#1_0" departPos="5.10" departSpeed="0.00" departDelay="0.88" arrival="134.00" arrivalLane="450554042#0_0" arrivalPos="622.66" arrivalSpeed="14.33" duration="59.00" routeLength="763.53" waitingTime="0.00" waitingCount="0" stopTime="0.00" timeLoss="7.03" rerouteNo="0" devices="tripinfo_35" vType="DEFAULT_VEHTYPE" speedFactor="0.93" vaporized=""/>
    <tripinfo id="2" depart="5.00" departLane="666135205#0_0" departPos="5.10" departSpeed="0.00" departDelay="0.76" arrival="137.00" arrivalLane="231177697#0_0" arrivalPos="74.44" arrivalSpeed="12.62" duration="132.00" routeLength="649.17" waitingTime="68.00" waitingCount="2" stopTime="0.00" timeLoss="83.69" rerouteNo="0" devices="tripinfo_2" vType="DEFAULT_VEHTYPE" speedFactor="1.00" vaporized=""/>
    <tripinfo id="30" depart="64.00" departLane="E8_0" departPos="5.10" departSpeed="0.00" departDelay="0.47" arrival="143.00" arrivalLane="226276377#0_1" arrivalPos="135.52" arrivalSpeed="13.60" duration="79.00" routeLength="784.51" waitingTime="10.00" waitingCount="1" stopTime="0.00" timeLoss="22.06" rerouteNo="0" devices="tripinfo_30" vType="DEFAULT_VEHTYPE" speedFactor="1.00" vaporized=""/>
    <tripinfo id="4" depart="9.00" departLane="-661251539_0" departPos="5.10" departSpeed="0.00" departDelay="0.53" arrival="147.00" arrivalLane="-256961141#1_1" arrivalPos="204.72" arrivalSpeed="13.80" duration="138.00" routeLength="872.91" waitingTime="69.00" waitingCount="1" stopTime="0.00" timeLoss="82.14" rerouteNo="0" devices="tripinfo_4" vType="DEFAULT_VEHTYPE" speedFactor="1.09" vaporized=""/>
    <tripinfo id="0" depart="0.00" departLane="65746828#0_0" departPos="5.10" departSpeed="0.00" departDelay="0.00" arrival="152.00" arrivalLane="-256961141#1_1" arrivalPos="204.72" arrivalSpeed="11.48" duration="152.00" routeLength="931.50" waitingTime="67.00" waitingCount="2" stopTime="0.00" timeLoss="83.34" rerouteNo="0" devices="tripinfo_0" vType="DEFAULT_VEHTYPE" speedFactor="0.91" vaporized=""/>
    <tripinfo id="11" depart="24.00" departLane="-661251539_0" departPos="5.10" departSpeed="0.00" departDelay="0.71" arrival="153.00" arrivalLane="153964138#0_1" arrivalPos="337.99" arrivalSpeed="16.37" duration="129.00" routeLength="1239.04" waitingTime="31.00" waitingCount="1" stopTime="0.00" timeLoss="47.37" rerouteNo="0" devices="tripinfo_11" vType="DEFAULT_VEHTYPE" speedFactor="1.05" vaporized=""/>
    <tripinfo id="9" depart="20.00" departLane="978867529_0" departPos="5.10" departSpeed="0.00" departDelay="0.94" arrival="154.00" arrivalLane="-256961141#1_1" arrivalPos="204.72" arrivalSpeed="14.86" duration="134.00" routeLength="1459.36" waitingTime="29.00" waitingCount="1" stopTime="0.00" timeLoss="46.68" rerouteNo="0" devices="tripinfo_9" vType="DEFAULT_VEHTYPE" speedFactor="1.11" vaporized=""/>
    <tripinfo id="13" depart="28.00" departLane="-218680176#1_0" departPos="5.10" departSpeed="0.00" departDelay="0.47" arrival="155.00" arrivalLane="-256961141#1_1" arrivalPos="204.72" arrivalSpeed="14.18" duration="127.00" routeLength="1207.38" waitingTime="31.00" waitingCount="1" stopTime="0.00" timeLoss="51.34" rerouteNo="0" devices="tripinfo_13" vType="DEFAULT_VEHTYPE" speedFactor="1.08" vaporized=""/>
    <tripinfo id="25" depart="53.00" departLane="-661251539_0" departPos="5.10" departSpeed="0.00" departDelay="0.06" arrival="155.00" arrivalLane="153964138#0_0" arrivalPos="337.99" arrivalSpeed="15.60" duration="102.00" routeLength="1239.04" waitingTime="0.00" waitingCount="0" stopTime="0.00" timeLoss="16.74" rerouteNo="0" devices="tripinfo_25" vType="DEFAULT_VEHTYPE" speedFactor="1.01" vaporized=""/>
    <tripinfo id="61" depart="130.00" departLane="978867529_0" departPos="5.10" departSpeed="0.00" departDelay="0.82" arrival="163.00" arrivalLane="218680176#0_0" arrivalPos="98.94" arrivalSpeed="15.48" duration="33.00" routeLength="442.15" waitingTime="0.00" waitingCount="0" stopTime="0.00" timeLoss="6.68" rerouteNo="0" devices="tripinfo_61" vType="DEFAULT_VEHTYPE" speedFactor="1.13" vaporized=""/>
    <tripinfo id="33" depart="70.00" departLane="-231177697#2_0" departPos="5.10" departSpeed="0.00" departDelay="0.12" arrival="173.00" arrivalLane="-256961141#1_1" arrivalPos="204.72" arrivalSpeed="13.66" duration="103.00" routeLength="1204.36" waitingTime="4.00" waitingCount="2" stopTime="0.00" timeLoss="25.71" rerouteNo="0" devices="tripinfo_33" vType="DEFAULT_VEHTYPE" speedFactor="1.06" vaporized=""/>
    <tripinfo id="21" depart="45.00" departLane="-231177697#2_0" departPos="5.10" departSpeed="0.00" departDelay="0.53" arrival="182.00" arrivalLane="210831345#1_1" arrivalPos="264.29" arrivalSpeed="14.22" duration="137.00" routeLength="696.92" waitingTime="57.00" waitingCount="2" stopTime="0.00" timeLoss="90.33" rerouteNo="0" devices="tripinfo_21" vType="DEFAULT_VEHTYPE" speedFactor="1.09" vaporized=""/>
    <tripinfo id="39" depart="83.00" departLane="-231177697#2_0" departPos="5.10" departSpeed="0.00" departDelay="0.41" arrival="185.00" arrivalLane="210831345#1_1" arrivalPos="264.29" arrivalSpeed="15.65" duration="102.00" routeLength="696.92" waitingTime="35.00" waitingCount="1" stopTime="0.00" timeLoss="58.61" rerouteNo="0" devices="tripinfo_39" vType="DEFAULT_VEHTYPE" speedFactor="1.19" vaporized=""/>
    <tripinfo id="42" depart="89.00" departLane="-661251539_0" departPos="5.10" departSpeed="0.00" departDelay="0.06" arrival="185.00" arrivalLane="153964138#0_0" arrivalPos="337.99" arrivalSpeed="15.06" duration="96.00" routeLength="1239.04" waitingTime="0.00" waitingCount="0" stopTime="0.00" timeLoss="8.33" rerouteNo="0" devices="tripinfo_42" vType="DEFAULT_VEHTYPE" speedFactor="0.98" vaporized=""/>
    <tripinfo id="1" depart="3.00" departLane="-231177697#2_0" departPos="5.10" departSpeed="0.00" departDelay="0.88" arrival="186.00" arrivalLane="210831345#1_0" arrivalPos="264.29" arrivalSpeed="9.36" duration="183.00" routeLength="696.92" waitingTime="98.00" waitingCount="2" stopTime="0.00" timeLoss="114.46" rerouteNo="0" devices="tripinfo_1" vType="DEFAULT_VEHTYPE" speedFactor="0.74" vaporized=""/>
    <tripinfo id="34" depart="72.00" departLane="-231177697#2_0" departPos="5.10" departSpeed="0.00" departDelay="0.00" arrival="188.00" arrivalLane="210831345#1_0" arrivalPos="264.29" arrivalSpeed="12.14" duration="116.00" routeLength="696.92" waitingTime="36.00" waitingCount="2" stopTime="0.00" timeLoss="72.12" rerouteNo="0" devices="tripinfo_34" vType="DEFAULT_VEHTYPE" speedFactor="1.17" vaporized=""/>
    <tripinfo id="36" depart="77.00" departLane="978867529_0" departPos="5.10" departSpeed="0.00" departDelay="0.76" arrival="188.00" arrivalLane="210831345#1_1" arrivalPos="264.29" arrivalSpeed="15.02" duration="111.00" routeLength="951.92" waitingTime="25.00" waitingCount="2" stopTime="0.00" timeLoss="49.98" rerouteNo="0" devices="tripinfo_36" vType="DEFAULT_VEHTYPE" speedFactor="1.09" vaporized=""/>
    <tripinfo id="32" depart="68.00" departLane="978867529_0" departPos="5.10" departSpeed="0.00" departDelay="0.24" arrival="189.00" arrivalLane="231177697#0_1" arrivalPos="74.44" arrivalSpeed="12.82" duration="121.00" routeLength="437.06" waitingTime="81.00" waitingCount="1" stopTime="0.00" timeLoss="91.33" rerouteNo="0" devices="tripinfo_32" vType="DEFAULT_VEHTYPE" speedFactor="0.98" vaporized=""/>
    <tripinfo id="5" depart="11.00" departLane="-226276377#1_0" departPos="5.10" departSpeed="0.00" departDelay="0.41" arrival="190.00" arrivalLane="218680176#0_1" arrivalPos="98.94" arrivalSpeed="12.27" duration="179.00" routeLength="1158.55" waitingTime="78.00" waitingCount="2" stopTime="0.00" timeLoss="96.11" rerouteNo="0" devices="tripinfo_5" vType="DEFAULT_VEHTYPE" speedFactor="0.97" vaporized=""/>
    <tripinfo id="55" depart="117.00" departLane="978867529_0" departPos="5.10" departSpeed="0.00" departDelay="0.53" arrival="190.00" arrivalLane="210831345#1_1" arrivalPos="264.29" arrivalSpeed="12.91" duration="73.00" routeLength="951.92" waitingTime="0.00" waitingCount="0" stopTime="0.00" timeLoss="7.07" rerouteNo="0" devices="tripinfo_55" vType="DEFAULT_VEHTYPE" speedFactor="0.99" vaporized=""/>
    <tripinfo id="46" depart="98.00" departLane="978867529_0" departPos="5.10" departSpeed="0.00" departDelay="0.59" arrival="192.00" arrivalLane="210831347#0_0" arrivalPos="149.88" arrivalSpeed="13.13" duration="94.00" routeLength="812.56" waitingTime="21.00" waitingCount="2" stopTime="0.00" timeLoss="38.90" rerouteNo="0" devices="tripinfo_46" vType="DEFAULT_VEHTYPE" speedFactor="1.01" vaporized=""/>
    <tripinfo id="17" depart="36.00" departLane="-661251539_0" departPos="5.10" departSpeed="0.00" departDelay="0.00" arrival="193.00" arrivalLane="218680176#0_1" arrivalPos="98.94" arrivalSpeed="11.66" duration="157.00" routeLength="1001.21" waitingTime="59.00" waitingCount="2" stopTime="0.00" timeLoss="75.73" rerouteNo="0" devices="tripinfo_17" vType="DEFAULT_VEHTYPE" speedFactor="0.90" vaporized=""/>
    <tripinfo id="50" depart="106.00" departLane="-218680176#1_0" departPos="5.10" departSpeed="0.00" departDelay="0.12" arrival="221.00" arrivalLane="231177697#0_0" arrivalPos="74.44" arrivalSpeed="12.66" duration="115.00" routeLength="205.97" waitingTime="87.00" waitingCount="1" stopTime="0.00" timeLoss="99.15" rerouteNo="0" devices="tripinfo_50" vType="DEFAULT_VEHTYPE" speedFactor="0.95" vaporized=""/>
    <tripinfo id="64" depart="136.00" departLane="978867529_0" departPos="5.10" departSpeed="0.00" departDelay="0.47" arrival="223.00" arrivalLane="39907424_0" arrivalPos="316.44" arrivalSpeed="14.07" duration="87.00" routeLength="1216.15" waitingTime="0.00" waitingCount="0" stopTime="0.00" timeLoss="12.36" rerouteNo="0" devices="tripinfo_64" vType="DEFAULT_VEHTYPE" speedFactor="1.11" vaporized=""/>
    <tripinfo id="79" depart="168.00" departLane="-231177697#2_0" departPos="5.10" departSpeed="0.00" departDelay="0.71" arrival="225.00" arrivalLane="153964138#0_0" arrivalPos="337.99" arrivalSpeed="14.22" duration="57.00" routeLength="417.38" waitingTime="20.00" waitingCount="1" stopTime="0.00" timeLoss="27.14" rerouteNo="0" devices="tripinfo_79" vType="DEFAULT_VEHTYPE" speedFactor="0.90" vaporized=""/>
    <tripinfo id="54" depart="115.00" departLane="256961141#0_0" departPos="5.10" departSpeed="0.00" departDelay="0.65" arrival="226.00" arrivalLane="450554042#0_0" arrivalPos="622.66" arrivalSpeed="14.94" duration="111.00" routeLength="853.74" waitingTime="39.00" waitingCount="1" stopTime="0.00" timeLoss="52.05" rerouteNo="0" devices="tripinfo_54" vType="DEFAULT_VEHTYPE" speedFactor="0.93" vaporized=""/>
    <tripinfo id="68" depart="144.00" departLane="-218680176#1_0" departPos="5.10" departSpeed="0.00" departDelay="0.00" arrival="227.00" arrivalLane="231177697#0_0" arrivalPos="74.44" arrivalSpeed="14.13" duration="83.00" routeLength="205.97" waitingTime="54.00" waitingCount="1" stopTime="0.00" timeLoss="68.28" rerouteNo="0" devices="tripinfo_68" vType="DEFAULT_VEHTYPE" speedFactor="1.03" vaporized=""/>
    <tripinfo id="22" depart="47.00" departLane="-218680176#1_0" departPos="5.10" departSpeed="0.00" departDelay="0.41" arrival="241.00" arrivalLane="210831345#1_1" arrivalPos="264.29" arrivalSpeed="15.21" duration="194.00" routeLength="699.94" waitingTime="132.00" waitingCount="2" stopTime="0.00" timeLoss="149.59" rerouteNo="0" devices="tripinfo_22" vType="DEFAULT_VEHTYPE" speedFactor="1.18" vaporized=""/>
    <tripinfo id="51" depart="108.00" departLane="666135205#0_0" departPos="5.10" departSpeed="0.00" departDelay="0.00" arrival="241.00" arrivalLane="218680176#0_1" arrivalPos="98.94" arrivalSpeed="11.85" duration="133.00" routeLength="693.09" waitingTime="58.00" waitingCount="2" stopTime="0.00" timeLoss="73.62" rerouteNo="0" devices="tripinfo_51" vType="DEFAULT_VEHTYPE" speedFactor="0.86" vaporized=""/>
    <tripinfo id="47" depart="100.00" departLane="-218680176#1_0" departPos="5.10" departSpeed="0.00" departDelay="0.47" arrival="247.00" arrivalLane="210831347#0_0" arrivalPos="149.88" arrivalSpeed="14.01" duration="147.00" routeLength="560.58" waitingTime="90.00" waitingCount="1" stopTime="0.00" timeLoss="108.08" rerouteNo="0" devices="tripinfo_47" vType="DEFAULT_VEHTYPE" speedFactor="1.10" vaporized=""/>
    <tripinfo id="40" depart="85.00" departLane="65746828#0_0" departPos="5.10" departSpeed="0.00" departDelay="0.29" arrival="250.00" arrivalLane="210831345#1_0" arrivalPos="264.29" arrivalSpeed="12.29" duration="165.00" routeLength="446.75" waitingTime="116.00" waitingCount="2" stopTime="0.00" timeLoss="130.03" rerouteNo="0" devices="tripinfo_40" vType="DEFAULT_VEHTYPE" speedFactor="0.93" vaporized=""/>
    <tripinfo id="77" depart="164.00" departLane="-226276377#1_0" departPos="5.10" departSpeed="0.00" departDelay="0.94" arrival="255.00" arrivalLane="210831345#1_0" arrivalPos="264.29" arrivalSpeed="13.39" duration="91.00" routeLength="977.93" waitingTime="5.00" waitingCount="2" stopTime="0.00" timeLoss="25.87" rerouteNo="0" devices="tripinfo_77" vType="DEFAULT_VEHTYPE" speedFactor="1.04" vaporized=""/>
    <tripinfo id="74" depart="157.00" departLane="-226276377#1_0" departPos="5.10" departSpeed="0.00" departDelay="0.29" arrival="260.00" arrivalLane="210831345#1_0" arrivalPos="264.29" arrivalSpeed="13.20" duration="103.00" routeLength="977.93" waitingTime="10.00" waitingCount="1" stopTime="0.00" timeLoss="31.45" rerouteNo="0" devices="tripinfo_74" vType="DEFAULT_VEHTYPE" speedFactor="0.96" vaporized=""/>
    <tripinfo id="88" depart="187.00" departLane="-218680176#1_0" departPos="5.10" departSpeed="0.00" departDelay="0.65" arrival="262.00" arrivalLane="210831347#0_0" arrivalPos="149.88" arrivalSpeed="14.08" duration="75.00" routeLength="560.58" waitingTime="15.00" waitingCount="1" stopTime="0.00" timeLoss="34.98" rerouteNo="0" devices="tripinfo_88" vType="DEFAULT_VEHTYPE" speedFactor="1.05" vaporized=""/>
    <tripinfo id="95" depart="202.00" departLane="-661251539_0" departPos="5.10" departSpeed="0.00" departDelay="0.82" arrival="274.00" arrivalLane="210831345#1_0" arrivalPos="264.29" arrivalSpeed="13.56" duration="72.00" routeLength="826.64" waitingTime="0.00" waitingCount="0" stopTime="0.00" timeLoss="11.87" rerouteNo="0" devices="tripinfo_95" vType="DEFAULT_VEHTYPE" speedFactor="1.02" vaporized=""/>
    <tripinfo id="115" depart="244.00" departLane="-218680176#1_0" departPos="5.10" departSpeed="0.00" departDelay="0.47" arrival="280.00" arrivalLane="153964138#0_2" arrivalPos="337.99" arrivalSpeed="15.94" duration="36.00" routeLength="462.27" waitingTime="0.00" waitingCount="0" stopTime="0.00" timeLoss="4.89" rerouteNo="0" devices="tripinfo_115" vType="DEFAULT_VEHTYPE" speedFactor="0.96" vaporized=""/>
    <tripinfo id="28" depart="60.00" departLane="-226276377#1_0" departPos="5.10" departSpeed="0.00" departDelay="0.71" arrival="290.00" arrivalLane="231177697#0_0" arrivalPos="74.44" arrivalSpeed="13.37" duration="230.00" routeLength="1114.63" waitingTime="128.00" waitingCount="3" stopTime="0.00" timeLoss="153.32" rerouteNo="0" devices="tripinfo_28" vType="DEFAULT_VEHTYPE" speedFactor="1.01" vaporized=""/>
    <tripinfo id="52" depart="111.00" departLane="-231177697#2_0" departPos="5.10" departSpeed="0.00" departDelay="0.88" arrival="294.00" arrivalLane="226276377#0_0" arrivalPos="135.52" arrivalSpeed="13.06" duration="183.00" routeLength="1114.55" waitingTime="94.00" waitingCount="1" stopTime="0.00" timeLoss="105.51" rerouteNo="0" devices="tripinfo_52" vType="DEFAULT_VEHTYPE" speedFactor="0.97" vaporized=""/>
    <tripinfo id="3" depart="7.00" departLane="E8_0" departPos="5.10" departSpeed="0.00" departDelay="0.65" arrival="296.00" arrivalLane="-256961141#1_0" arrivalPos="204.72" arrivalSpeed="14.13" duration="289.00" routeLength="832.89" waitingTime="220.00" waitingCount="1" stopTime="0.00" timeLoss="231.59" rerouteNo="0" devices="tripinfo_3" vType="DEFAULT_VEHTYPE" speedFactor="1.07" vaporized=""/>
    <tripinfo id="27" depart="58.00" departLane="65746828#0_0" departPos="5.10" departSpeed="0.00" departDelay="0.82" arrival="296.00" arrivalLane="226276377#0_0" arrivalPos="135.52" arrivalSpeed="13.55" duration="238.00" routeLength="841.69" waitingTime="164.00" waitingCount="2" stopTime="0.00" timeLoss="181.24" rerouteNo="0" devices="tripinfo_27" vType="DEFAULT_VEHTYPE" speedFactor="0.98" vaporized=""/>
    <tripinfo id="114" depart="242.00" departLane="-226276377#1_0" departPos="5.10" departSpeed="0.00" departDelay="0.59" arrival="297.00" arrivalLane="450554042#0_0" arrivalPos="622.66" arrivalSpeed="16.52" duration="55.00" routeLength="763.53" waitingTime="0.00" waitingCount="0" stopTime="0.00" timeLoss="7.60" rerouteNo="0" devices="tripinfo_114" vType="DEFAULT_VEHTYPE" speedFactor="1.02" vaporized=""/>
    <tripinfo id="18" depart="39.00" departLane="978867529_0" departPos="5.10" departSpeed="0.00" departDelay="0.88" arrival="300.00" arrivalLane="226276377#0_0" arrivalPos="135.52" arrivalSpeed="11.93" duration="261.00" routeLength="1369.55" waitingTime="136.00" waitingCount="3" stopTime="0.00" timeLoss="164.55" rerouteNo="0" devices="tripinfo_18" vType="DEFAULT_VEHTYPE" speedFactor="0.93" vaporized=""/>
    <tripinfo id="86" depart="183.00" departLane="256961141#0_0" departPos="5.10" departSpeed="0.00" departDelay="0.88" arrival="301.00" arrivalLane="39907424_0" arrivalPos="316.44" arrivalSpeed="14.96" duration="118.00" routeLength="873.95" waitingTime="50.00" waitingCount="1" stopTime="0.00" timeLoss="65.06" rerouteNo="0" devices="tripinfo_86" vType="DEFAULT_VEHTYPE" speedFactor="1.16" vaporized=""/>
    <tripinfo id="14" depart="30.00" departLane="978867529_0" departPos="5.10" departSpeed="0.00" departDelay="0.35" arrival="302.00" arrivalLane="226276377#0_0" arrivalPos="135.52" arrivalSpeed="14.36" duration="272.00" routeLength="1369.55" waitingTime="148.00" waitingCount="3" stopTime="0.00" timeLoss="184.96" rerouteNo="0" devices="tripinfo_14" vType="DEFAULT_VEHTYPE" speedFactor="1.04" vaporized=""/>
    <tripinfo id="91" depart="193.00" departLane="E8_0" departPos="5.10" departSpeed="0.00" departDelay="0.29" arrival="303.00" arrivalLane="-256961141#1_0" arrivalPos="204.72" arrivalSpeed="12.41" duration="110.00" routeLength="832.89" waitingTime="33.00" waitingCount="1" stopTime="0.00" timeLoss="46.03" rerouteNo="0" devices="tripinfo_91" vType="DEFAULT_VEHTYPE" speedFactor="0.95" vaporized=""/>
    <tripinfo id="72" depart="153.00" departLane="-661251539_0" departPos="5.10" departSpeed="0.00" departDelay="0.53" arrival="304.00" arrivalLane="153964138#0_0" arrivalPos="337.99" arrivalSpeed="15.71" duration="151.00" routeLength="1239.04" waitingTime="43.00" waitingCount="3" stopTime="0.00" timeLoss="64.59" rerouteNo="0" devices="tripinfo_72" vType="DEFAULT_VEHTYPE" speedFactor="1.00" vaporized=""/>
    <tripinfo id="84" depart="178.00" departLane="-226276377#1_0" departPos="5.10" departSpeed="0.00" departDelay="0.12" arrival="304.00" arrivalLane="153964138#0_1" arrivalPos="337.99" arrivalSpeed="15.37" duration="126.00" routeLength="1390.33" waitingTime="17.00" waitingCount="1" stopTime="0.00" timeLoss="31.00" rerouteNo="0" devices="tripinfo_84" vType="DEFAULT_VEHTYPE" speedFactor="0.97" vaporized=""/>
    <tripinfo id="19" depart="42.00" departLane="978867529_0" departPos="5.10" departSpeed="0.00" departDelay="1.76" arrival="305.00" arrivalLane="226276377#0_0" arrivalPos="135.52" arrivalSpeed="12.62" duration="263.00" routeLength="1369.55" waitingTime="135.00" waitingCount="3" stopTime="0.00" timeLoss="167.42" rerouteNo="0" devices="tripinfo_19" vType="DEFAULT_VEHTYPE" speedFactor="0.94" vaporized=""/>
    <tripinfo id="78" depart="166.00" departLane="-661251539_0" departPos="5.10" departSpeed="0.00" departDelay="0.82" arrival="307.00" arrivalLane="226276377#0_0" arrivalPos="135.52" arrivalSpeed="14.72" duration="141.00" routeLength="783.10" waitingTime="68.00" waitingCount="2" stopTime="0.00" timeLoss="91.25" rerouteNo="0" devices="tripinfo_78" vType="DEFAULT_VEHTYPE" speedFactor="1.10" vaporized=""/>
    <tripinfo id="45" depart="97.00" departLane="-218680176#1_0" departPos="5.10" departSpeed="0.00" departDelay="1.71" arrival="310.00" arrivalLane="226276377#0_0" arrivalPos="135.52" arrivalSpeed="12.98" duration="213.00" routeLength="1117.57" waitingTime="108.00" waitingCount="2" stopTime="0.00" timeLoss="133.64" rerouteNo="0" devices="tripinfo_45" vType="DEFAULT_VEHTYPE" speedFactor="0.96" vaporized=""/>
    <tripinfo id="56" depart="119.00" departLane="256961141#0_0" departPos="5.10" departSpeed="0.00" departDelay="0.41" arrival="312.00" arrivalLane="153964138#0_0" arrivalPos="337.99" arrivalSpeed="11.79" duration="193.00" routeLength="1439.25" waitingTime="34.00" waitingCount="3" stopTime="0.00" timeLoss="58.60" rerouteNo="0" devices="tripinfo_56" vType="DEFAULT_VEHTYPE" speedFactor="0.72" vaporized=""/>
    <tripinfo id="80" depart="170.00" departLane="-218680176#1_0" departPos="5.10" departSpeed="0.00" departDelay="0.59" arrival="312.00" arrivalLane="226276377#0_0" arrivalPos="135.52" arrivalSpeed="11.86" duration="142.00" routeLength="1117.57" waitingTime="32.00" waitingCount="2" stopTime="0.00" timeLoss="62.06" rerouteNo="0" devices="tripinfo_80" vType="DEFAULT_VEHTYPE" speedFactor="0.94" vaporized=""/>
    <tripinfo id="120" depart="255.00" departLane="-661251539_0" departPos="5.10" departSpeed="0.00" departDelay="0.88" arrival="314.00" arrivalLane="226276377#0_0" arrivalPos="135.52" arrivalSpeed="15.66" duration="59.00" routeLength="783.10" waitingTime="0.00" waitingCount="0" stopTime="0.00" timeLoss="12.18" rerouteNo="0" devices="tripinfo_120" vType="DEFAULT_VEHTYPE" speedFactor="1.17" vaporized=""/>
    <tripinfo id="112" depart="238.00" departLane="-218680176#1_0" departPos="5.10" departSpeed="0.00" departDelay="0.82" arrival="316.00" arrivalLane="226276377#0_0" arrivalPos="135.52" arrivalSpeed="14.03" duration="78.00" routeLength="1117.57" waitingTime="0.00" waitingCount="0" stopTime="0.00" timeLoss="9.82" rerouteNo="0" devices="tripinfo_112" vType="DEFAULT_VEHTYPE" speedFactor="1.10" vaporized=""/>
    <tripinfo id="63" depart="135.00" departLane="-218680176#1_0" departPos="5.10" departSpeed="0.00" departDelay="1.59" arrival="318.00" arrivalLane="450554042#0_2" arrivalPos="622.66" arrivalSpeed="18.11" duration="183.00" routeLength="1616.60" waitingTime="62.00" waitingCount="2" stopTime="0.00" timeLoss="89.21" rerouteNo="0" devices="tripinfo_63" vType="DEFAULT_VEHTYPE" speedFactor="1.10" vaporized=""/>
    <tripinfo id="26" depart="56.00" departLane="-231177697#2_0" departPos="5.10" departSpeed="0.00" departDelay="0.94" arrival="319.00" arrivalLane="450554042#0_0" arrivalPos="622.66" arrivalSpeed="17.69" duration="263.00" routeLength="1613.58" waitingTime="142.00" waitingCount="2" stopTime="0.00" timeLoss="166.57" rerouteNo="0" devices="tripinfo_26" vType="DEFAULT_VEHTYPE" speedFactor="1.07" vaporized=""/>
    <tripinfo id="66" depart="140.00" departLane="978867529_0" departPos="5.10" departSpeed="0.00" departDelay="0.24" arrival="319.00" arrivalLane="450554042#0_1" arrivalPos="622.66" arrivalSpeed="17.00" duration="179.00" routeLength="1868.58" waitingTime="52.00" waitingCount="1" stopTime="0.00" timeLoss="69.18" rerouteNo="0" devices="tripinfo_66" vType="DEFAULT_VEHTYPE" speedFactor="1.07" vaporized=""/>
    <tripinfo id="113" depart="240.00" departLane="256961141#0_0" departPos="5.10" departSpeed="0.00" departDelay="0.71" arrival="321.00" arrivalLane="39907424_0" arrivalPos="316.44" arrivalSpeed="11.96" duration="81.00" routeLength="873.95" waitingTime="0.00" waitingCount="0" stopTime="0.00" timeLoss="14.96" rerouteNo="0" devices="tripinfo_113" vType="DEFAULT_VEHTYPE" speedFactor="0.93" vaporized=""/>
    <tripinfo id="104" depart="222.00" departLane="-661251539_0" departPos="5.10" departSpeed="0.00" departDelay="1.76" arrival="325.00" arrivalLane="450554042#0_0" arrivalPos="622.66" arrivalSpeed="14.71" duration="103.00" routeLength="1282.13" waitingTime="2.00" waitingCount="1" stopTime="0.00" timeLoss="17.17" rerouteNo="0" devices="tripinfo_104" vType="DEFAULT_VEHTYPE" speedFactor="0.96" vaporized=""/>
    <tripinfo id="128" depart="272.00" departLane="-218680176#1_0" departPos="5.10" departSpeed="0.00" departDelay="0.94" arrival="327.00" arrivalLane="153964138#0_2" arrivalPos="337.99" arrivalSpeed="17.97" duration="55.00" routeLength="462.27" waitingTime="18.00" waitingCount="1" stopTime="0.00" timeLoss="27.90" rerouteNo="0" devices="tripinfo_128" vType="DEFAULT_VEHTYPE" speedFactor="1.09" vaporized=""/>
    <tripinfo id="49" depart="105.00" departLane="E8_0" departPos="5.10" departSpeed="0.00" departDelay="1.24" arrival="333.00" arrivalLane="39907424_0" arrivalPos="316.44" arrivalSpeed="13.33" duration="228.00" routeLength="1303.68" waitingTime="122.00" waitingCount="1" stopTime="0.00" timeLoss="136.41" rerouteNo="0" devices="tripinfo_49" vType="DEFAULT_VEHTYPE" speedFactor="0.99" vaporized=""/>
    <tripinfo id="119" depart="252.00" departLane="65746828#0_0" departPos="5.10" departSpeed="0.00" departDelay="0.00" arrival="334.00" arrivalLane="226276377#0_0" arrivalPos="135.52" arrivalSpeed="12.57" duration="82.00" routeLength="841.69" waitingTime="10.00" waitingCount="1" stopTime="0.00" timeLoss="25.34" rerouteNo="0" devices="tripinfo_119" vType="DEFAULT_VEHTYPE" speedFactor="0.99" vaporized=""/>
    <tripinfo id="99" depart="210.00" departLane="E8_0" departPos="5.10" departSpeed="0.00" departDelay="0.35" arrival="335.00" arrivalLane="39907424_0" arrivalPos="316.44" arrivalSpeed="14.12" duration="125.00" routeLength="1303.68" waitingTime="20.00" waitingCount="1" stopTime="0.00" timeLoss="37.90" rerouteNo="0" devices="tripinfo_99" vType="DEFAULT_VEHTYPE" speedFactor="1.05" vaporized=""/>
    <tripinfo id="145" depart="308.00" departLane="-218680176#1_0" departPos="5.10" departSpeed="0.00" departDelay="0.94" arrival="339.00" arrivalLane="231177697#0_0" arrivalPos="74.44" arrivalSpeed="12.09" duration="31.00" routeLength="205.97" waitingTime="6.00" waitingCount="1" stopTime="0.00" timeLoss="14.82" rerouteNo="0" devices="tripinfo_145" vType="DEFAULT_VEHTYPE" speedFactor="0.93" vaporized=""/>
    <tripinfo id="57" depart="121.00" departLane="E8_0" departPos="5.10" departSpeed="0.00" departDelay="0.29" arrival="347.00" arrivalLane="39907424_0" arrivalPos="316.44" arrivalSpeed="10.59" duration="226.00" routeLength="1303.68" waitingTime="100.00" waitingCount="2" stopTime="0.00" timeLoss="118.76" rerouteNo="0" devices="tripinfo_57" vType="DEFAULT_VEHTYPE" speedFactor="0.84" vaporized=""/>