<?xml version="1.0" encoding="UTF-8"?>

<!-- generated on 2024-09-03 02:45:18 by Eclipse SUMO sumo Version 1.20.0
<configuration xmlns:xsi="http://www.w3.org/2001/XMLSchema-instance" xsi:noNamespaceSchemaLocation="http://sumo.dlr.de/xsd/sumoConfiguration.xsd">

    <input>
        <net-file value="c:\self\School\Master\Disertation\code\RESCO\resco_benchmark\environments/unirii/osm.net.xml.gz"/>
        <route-files value="c:\self\School\Master\Disertation\code\RESCO\resco_benchmark\environments/unirii/osm.passenger.trips.xml"/>
        <additional-files value="c:\self\School\Master\Disertation\code\RESCO\resco_benchmark\environments/unirii/osm.poly.xml.gz"/>
    </input>

    <output>
        <tripinfo-output value="C:\self\School\Master\Disertation\code\RESCO\results\IA2C-tr0-unirii-0-drq_norm-wait_norm\tripinfo_50.xml"/>
        <tripinfo-output.write-unfinished value="true"/>
    </output>

    <processing>
        <ignore-route-errors value="true"/>
        <time-to-teleport value="-1"/>
    </processing>

    <routing>
        <device.rerouting.adaptation-steps value="18"/>
        <device.rerouting.adaptation-interval value="10"/>
    </routing>

    <report>
        <verbose value="true"/>
        <no-warnings value="True"/>
        <duration-log.statistics value="true"/>
        <no-step-log value="True"/>
    </report>

    <traci_server>
        <remote-port value="52328"/>
    </traci_server>

    <random_number>
        <random value="true"/>
    </random_number>

    <gui_only>
        <gui-settings-file value="c:\self\School\Master\Disertation\code\RESCO\resco_benchmark\environments/unirii/osm.view.xml"/>
    </gui_only>

</configuration>
-->

<tripinfos xmlns:xsi="http://www.w3.org/2001/XMLSchema-instance" xsi:noNamespaceSchemaLocation="http://sumo.dlr.de/xsd/tripinfo_file.xsd">
    <tripinfo id="4" depart="9.00" departLane="-661251539_0" departPos="5.10" departSpeed="0.00" departDelay="0.53" arrival="82.00" arrivalLane="-256961141#1_1" arrivalPos="204.72" arrivalSpeed="12.26" duration="73.00" routeLength="872.91" waitingTime="0.00" waitingCount="0" stopTime="0.00" timeLoss="7.33" rerouteNo="0" devices="tripinfo_4" vType="DEFAULT_VEHTYPE" speedFactor="0.92" vaporized=""/>
    <tripinfo id="10" depart="23.00" departLane="978867529_0" departPos="5.10" departSpeed="0.00" departDelay="1.82" arrival="88.00" arrivalLane="231177697#0_1" arrivalPos="74.44" arrivalSpeed="13.77" duration="65.00" routeLength="437.06" waitingTime="30.00" waitingCount="1" stopTime="0.00" timeLoss="36.65" rerouteNo="0" devices="tripinfo_10" vType="DEFAULT_VEHTYPE" speedFactor="1.01" vaporized=""/>
    <tripinfo id="15" depart="33.00" departLane="978867529_0" departPos="5.10" departSpeed="0.00" departDelay="1.24" arrival="90.00" arrivalLane="231177697#0_1" arrivalPos="74.44" arrivalSpeed="13.62" duration="57.00" routeLength="437.06" waitingTime="19.00" waitingCount="1" stopTime="0.00" timeLoss="29.72" rerouteNo="0" devices="tripinfo_15" vType="DEFAULT_VEHTYPE" speedFactor="1.05" vaporized=""/>
    <tripinfo id="32" depart="68.00" departLane="978867529_0" departPos="5.10" departSpeed="0.00" departDelay="0.24" arrival="103.00" arrivalLane="231177697#0_1" arrivalPos="74.44" arrivalSpeed="13.19" duration="35.00" routeLength="437.06" waitingTime="0.00" waitingCount="0" stopTime="0.00" timeLoss="5.17" rerouteNo="0" devices="tripinfo_32" vType="DEFAULT_VEHTYPE" speedFactor="0.95" vaporized=""/>
    <tripinfo id="2" depart="5.00" departLane="666135205#0_0" departPos="5.10" departSpeed="0.00" departDelay="0.76" arrival="112.00" arrivalLane="231177697#0_0" arrivalPos="74.44" arrivalSpeed="13.25" duration="107.00" routeLength="649.17" waitingTime="42.00" waitingCount="1" stopTime="0.00" timeLoss="56.85" rerouteNo="0" devices="tripinfo_2" vType="DEFAULT_VEHTYPE" speedFactor="0.97" vaporized=""/>
    <tripinfo id="23" depart="50.00" departLane="-218680176#1_0" departPos="5.10" departSpeed="0.00" departDelay="1.29" arrival="130.00" arrivalLane="210831345#1_0" arrivalPos="264.29" arrivalSpeed="14.98" duration="80.00" routeLength="699.94" waitingTime="13.00" waitingCount="1" stopTime="0.00" timeLoss="35.03" rerouteNo="0" devices="tripinfo_23" vType="DEFAULT_VEHTYPE" speedFactor="1.14" vaporized=""/>
    <tripinfo id="22" depart="47.00" departLane="-218680176#1_0" departPos="5.10" departSpeed="0.00" departDelay="0.41" arrival="132.00" arrivalLane="210831345#1_0" arrivalPos="264.29" arrivalSpeed="10.63" duration="85.00" routeLength="699.94" waitingTime="14.00" waitingCount="1" stopTime="0.00" timeLoss="24.18" rerouteNo="0" devices="tripinfo_22" vType="DEFAULT_VEHTYPE" speedFactor="0.85" vaporized=""/>
    <tripinfo id="11" depart="24.00" departLane="-661251539_0" departPos="5.10" departSpeed="0.00" departDelay="0.71" arrival="134.00" arrivalLane="153964138#0_0" arrivalPos="337.99" arrivalSpeed="14.34" duration="110.00" routeLength="1239.04" waitingTime="0.00" waitingCount="0" stopTime="0.00" timeLoss="12.34" rerouteNo="0" devices="tripinfo_11" vType="DEFAULT_VEHTYPE" speedFactor="0.88" vaporized=""/>
    <tripinfo id="17" depart="36.00" departLane="-661251539_0" departPos="5.10" departSpeed="0.00" departDelay="0.00" arrival="140.00" arrivalLane="218680176#0_1" arrivalPos="98.94" arrivalSpeed="14.13" duration="104.00" routeLength="1001.21" waitingTime="19.00" waitingCount="1" stopTime="0.00" timeLoss="32.96" rerouteNo="0" devices="tripinfo_17" vType="DEFAULT_VEHTYPE" speedFactor="1.04" vaporized=""/>
    <tripinfo id="35" depart="75.00" departLane="-226276377#1_0" departPos="5.10" departSpeed="0.00" departDelay="0.88" arrival="140.00" arrivalLane="450554042#0_0" arrivalPos="622.66" arrivalSpeed="16.61" duration="65.00" routeLength="763.53" waitingTime="7.00" waitingCount="1" stopTime="0.00" timeLoss="17.10" rerouteNo="0" devices="tripinfo_35" vType="DEFAULT_VEHTYPE" speedFactor="1.01" vaporized=""/>
    <tripinfo id="25" depart="53.00" departLane="-661251539_0" departPos="5.10" departSpeed="0.00" departDelay="0.06" arrival="147.00" arrivalLane="153964138#0_0" arrivalPos="337.99" arrivalSpeed="15.65" duration="94.00" routeLength="1239.04" waitingTime="0.00" waitingCount="0" stopTime="0.00" timeLoss="9.47" rerouteNo="0" devices="tripinfo_25" vType="DEFAULT_VEHTYPE" speedFactor="1.01" vaporized=""/>
    <tripinfo id="36" depart="77.00" departLane="978867529_0" departPos="5.10" departSpeed="0.00" departDelay="0.76" arrival="159.00" arrivalLane="210831345#1_0" arrivalPos="264.29" arrivalSpeed="11.87" duration="82.00" routeLength="951.92" waitingTime="0.00" waitingCount="0" stopTime="0.00" timeLoss="9.77" rerouteNo="0" devices="tripinfo_36" vType="DEFAULT_VEHTYPE" speedFactor="0.90" vaporized=""/>
    <tripinfo id="50" depart="106.00" departLane="-218680176#1_0" departPos="5.10" departSpeed="0.00" departDelay="0.12" arrival="166.00" arrivalLane="231177697#0_0" arrivalPos="74.44" arrivalSpeed="14.85" duration="60.00" routeLength="205.97" waitingTime="33.00" waitingCount="1" stopTime="0.00" timeLoss="45.50" rerouteNo="0" devices="tripinfo_50" vType="DEFAULT_VEHTYPE" speedFactor="1.09" vaporized=""/>
    <tripinfo id="16" depart="34.00" departLane="256961141#0_0" departPos="5.10" departSpeed="0.00" departDelay="0.12" arrival="167.00" arrivalLane="450554042#0_1" arrivalPos="622.66" arrivalSpeed="18.04" duration="133.00" routeLength="853.74" waitingTime="74.00" waitingCount="1" stopTime="0.00" timeLoss="85.54" rerouteNo="0" devices="tripinfo_16" vType="DEFAULT_VEHTYPE" speedFactor="1.16" vaporized=""/>
    <tripinfo id="46" depart="98.00" departLane="978867529_0" departPos="5.10" departSpeed="0.00" departDelay="0.59" arrival="169.00" arrivalLane="210831347#0_0" arrivalPos="149.88" arrivalSpeed="14.02" duration="71.00" routeLength="812.56" waitingTime="7.00" waitingCount="1" stopTime="0.00" timeLoss="19.98" rerouteNo="0" devices="tripinfo_46" vType="DEFAULT_VEHTYPE" speedFactor="1.10" vaporized=""/>
    <tripinfo id="30" depart="64.00" departLane="E8_0" departPos="5.10" departSpeed="0.00" departDelay="0.47" arrival="171.00" arrivalLane="226276377#0_1" arrivalPos="135.52" arrivalSpeed="10.97" duration="107.00" routeLength="784.51" waitingTime="25.00" waitingCount="1" stopTime="0.00" timeLoss="35.87" rerouteNo="0" devices="tripinfo_30" vType="DEFAULT_VEHTYPE" speedFactor="0.81" vaporized=""/>
    <tripinfo id="54" depart="115.00" departLane="256961141#0_0" departPos="5.10" departSpeed="0.00" departDelay="0.65" arrival="171.00" arrivalLane="450554042#0_1" arrivalPos="622.66" arrivalSpeed="16.69" duration="56.00" routeLength="853.74" waitingTime="0.00" waitingCount="0" stopTime="0.00" timeLoss="5.55" rerouteNo="0" devices="tripinfo_54" vType="DEFAULT_VEHTYPE" speedFactor="1.08" vaporized=""/>
    <tripinfo id="68" depart="144.00" departLane="-218680176#1_0" departPos="5.10" departSpeed="0.00" departDelay="0.00" arrival="172.00" arrivalLane="231177697#0_0" arrivalPos="74.44" arrivalSpeed="14.08" duration="28.00" routeLength="205.97" waitingTime="0.00" waitingCount="0" stopTime="0.00" timeLoss="14.05" rerouteNo="0" devices="tripinfo_68" vType="DEFAULT_VEHTYPE" speedFactor="1.07" vaporized=""/>
    <tripinfo id="40" depart="85.00" departLane="65746828#0_0" departPos="5.10" departSpeed="0.00" departDelay="0.29" arrival="173.00" arrivalLane="210831345#1_0" arrivalPos="264.29" arrivalSpeed="13.41" duration="88.00" routeLength="446.75" waitingTime="43.00" waitingCount="2" stopTime="0.00" timeLoss="56.28" rerouteNo="0" devices="tripinfo_40" vType="DEFAULT_VEHTYPE" speedFactor="1.03" vaporized=""/>
    <tripinfo id="0" depart="0.00" departLane="65746828#0_0" departPos="5.10" departSpeed="0.00" departDelay="0.00" arrival="174.00" arrivalLane="-256961141#1_1" arrivalPos="204.72" arrivalSpeed="12.42" duration="174.00" routeLength="931.50" waitingTime="92.00" waitingCount="2" stopTime="0.00" timeLoss="105.72" rerouteNo="0" devices="tripinfo_0" vType="DEFAULT_VEHTYPE" speedFactor="0.91" vaporized=""/>
    <tripinfo id="13" depart="28.00" departLane="-218680176#1_0" departPos="5.10" departSpeed="0.00" departDelay="0.47" arrival="176.00" arrivalLane="-256961141#1_1" arrivalPos="204.72" arrivalSpeed="13.45" duration="148.00" routeLength="1207.38" waitingTime="40.00" waitingCount="2" stopTime="0.00" timeLoss="63.45" rerouteNo="0" devices="tripinfo_13" vType="DEFAULT_VEHTYPE" speedFactor="0.97" vaporized=""/>
    <tripinfo id="61" depart="130.00" departLane="978867529_0" departPos="5.10" departSpeed="0.00" departDelay="0.82" arrival="189.00" arrivalLane="218680176#0_0" arrivalPos="98.94" arrivalSpeed="13.34" duration="59.00" routeLength="442.15" waitingTime="19.00" waitingCount="1" stopTime="0.00" timeLoss="29.44" rerouteNo="0" devices="tripinfo_61" vType="DEFAULT_VEHTYPE" speedFactor="0.99" vaporized=""/>
    <tripinfo id="42" depart="89.00" departLane="-661251539_0" departPos="5.10" departSpeed="0.00" departDelay="0.06" arrival="202.00" arrivalLane="153964138#0_0" arrivalPos="337.99" arrivalSpeed="17.31" duration="113.00" routeLength="1239.04" waitingTime="17.00" waitingCount="1" stopTime="0.00" timeLoss="32.11" rerouteNo="0" devices="tripinfo_42" vType="DEFAULT_VEHTYPE" speedFactor="1.06" vaporized=""/>
    <tripinfo id="28" depart="60.00" departLane="-226276377#1_0" departPos="5.10" departSpeed="0.00" departDelay="0.71" arrival="206.00" arrivalLane="231177697#0_0" arrivalPos="74.44" arrivalSpeed="13.35" duration="146.00" routeLength="1114.63" waitingTime="53.00" waitingCount="1" stopTime="0.00" timeLoss="66.85" rerouteNo="0" devices="tripinfo_28" vType="DEFAULT_VEHTYPE" speedFactor="0.99" vaporized=""/>
    <tripinfo id="9" depart="20.00" departLane="978867529_0" departPos="5.10" departSpeed="0.00" departDelay="0.94" arrival="216.00" arrivalLane="-256961141#1_1" arrivalPos="204.72" arrivalSpeed="12.13" duration="196.00" routeLength="1459.36" waitingTime="69.00" waitingCount="2" stopTime="0.00" timeLoss="90.87" rerouteNo="0" devices="tripinfo_9" vType="DEFAULT_VEHTYPE" speedFactor="0.92" vaporized=""/>
    <tripinfo id="51" depart="108.00" departLane="666135205#0_0" departPos="5.10" departSpeed="0.00" departDelay="0.00" arrival="216.00" arrivalLane="218680176#0_1" arrivalPos="98.94" arrivalSpeed="11.30" duration="108.00" routeLength="693.09" waitingTime="37.00" waitingCount="2" stopTime="0.00" timeLoss="49.29" rerouteNo="0" devices="tripinfo_51" vType="DEFAULT_VEHTYPE" speedFactor="0.87" vaporized=""/>
    <tripinfo id="27" depart="58.00" departLane="65746828#0_0" departPos="5.10" departSpeed="0.00" departDelay="0.82" arrival="218.00" arrivalLane="226276377#0_0" arrivalPos="135.52" arrivalSpeed="10.26" duration="160.00" routeLength="841.69" waitingTime="78.00" waitingCount="2" stopTime="0.00" timeLoss="92.35" rerouteNo="0" devices="tripinfo_27" vType="DEFAULT_VEHTYPE" speedFactor="0.83" vaporized=""/>
    <tripinfo id="14" depart="30.00" departLane="978867529_0" departPos="5.10" departSpeed="0.00" departDelay="0.35" arrival="220.00" arrivalLane="226276377#0_0" arrivalPos="135.52" arrivalSpeed="12.43" duration="190.00" routeLength="1369.55" waitingTime="67.00" waitingCount="3" stopTime="0.00" timeLoss="95.32" rerouteNo="0" devices="tripinfo_14" vType="DEFAULT_VEHTYPE" speedFactor="0.95" vaporized=""/>
    <tripinfo id="7" depart="15.00" departLane="65746828#0_0" departPos="5.10" departSpeed="0.00" departDelay="0.18" arrival="221.00" arrivalLane="218680176#0_1" arrivalPos="98.94" arrivalSpeed="11.27" duration="206.00" routeLength="602.71" waitingTime="145.00" waitingCount="1" stopTime="0.00" timeLoss="155.54" rerouteNo="0" devices="tripinfo_7" vType="DEFAULT_VEHTYPE" speedFactor="0.88" vaporized=""/>
    <tripinfo id="3" depart="7.00" departLane="E8_0" departPos="5.10" departSpeed="0.00" departDelay="0.65" arrival="222.00" arrivalLane="-256961141#1_0" arrivalPos="204.72" arrivalSpeed="12.46" duration="215.00" routeLength="832.89" waitingTime="141.00" waitingCount="1" stopTime="0.00" timeLoss="152.65" rerouteNo="0" devices="tripinfo_3" vType="DEFAULT_VEHTYPE" speedFactor="0.98" vaporized=""/>
    <tripinfo id="18" depart="39.00" departLane="978867529_0" departPos="5.10" departSpeed="0.00" departDelay="0.88" arrival="222.00" arrivalLane="226276377#0_0" arrivalPos="135.52" arrivalSpeed="13.19" duration="183.00" routeLength="1369.55" waitingTime="64.00" waitingCount="3" stopTime="0.00" timeLoss="93.71" rerouteNo="0" devices="tripinfo_18" vType="DEFAULT_VEHTYPE" speedFactor="1.01" vaporized=""/>
    <tripinfo id="19" depart="42.00" departLane="978867529_0" departPos="5.10" departSpeed="0.00" departDelay="1.76" arrival="226.00" arrivalLane="226276377#0_0" arrivalPos="135.52" arrivalSpeed="11.19" duration="184.00" routeLength="1369.55" waitingTime="55.00" waitingCount="3" stopTime="0.00" timeLoss="81.69" rerouteNo="0" devices="tripinfo_19" vType="DEFAULT_VEHTYPE" speedFactor="0.88" vaporized=""/>
    <tripinfo id="78" depart="166.00" departLane="-661251539_0" departPos="5.10" departSpeed="0.00" departDelay="0.82" arrival="239.00" arrivalLane="226276377#0_0" arrivalPos="135.52" arrivalSpeed="13.38" duration="73.00" routeLength="783.10" waitingTime="4.00" waitingCount="1" stopTime="0.00" timeLoss="19.53" rerouteNo="0" devices="tripinfo_78" vType="DEFAULT_VEHTYPE" speedFactor="1.02" vaporized=""/>
    <tripinfo id="47" depart="100.00" departLane="-218680176#1_0" departPos="5.10" departSpeed="0.00" departDelay="0.47" arrival="243.00" arrivalLane="210831347#0_0" arrivalPos="149.88" arrivalSpeed="12.31" duration="143.00" routeLength="560.58" waitingTime="80.00" waitingCount="2" stopTime="0.00" timeLoss="97.96" rerouteNo="0" devices="tripinfo_47" vType="DEFAULT_VEHTYPE" speedFactor="0.94" vaporized=""/>
    <tripinfo id="6" depart="13.00" departLane="-218680176#1_0" departPos="5.10" departSpeed="0.00" departDelay="0.29" arrival="254.00" arrivalLane="153964138#0_2" arrivalPos="337.99" arrivalSpeed="16.12" duration="241.00" routeLength="462.27" waitingTime="202.00" waitingCount="1" stopTime="0.00" timeLoss="210.62" rerouteNo="0" devices="tripinfo_6" vType="DEFAULT_VEHTYPE" speedFactor="0.99" vaporized=""/>
    <tripinfo id="49" depart="105.00" departLane="E8_0" departPos="5.10" departSpeed="0.00" departDelay="1.24" arrival="256.00" arrivalLane="39907424_0" arrivalPos="316.44" arrivalSpeed="13.85" duration="151.00" routeLength="1303.68" waitingTime="49.00" waitingCount="1" stopTime="0.00" timeLoss="62.77" rerouteNo="0" devices="tripinfo_49" vType="DEFAULT_VEHTYPE" speedFactor="1.03" vaporized=""/>
    <tripinfo id="57" depart="121.00" departLane="E8_0" departPos="5.10" departSpeed="0.00" departDelay="0.29" arrival="259.00" arrivalLane="39907424_0" arrivalPos="316.44" arrivalSpeed="13.22" duration="138.00" routeLength="1303.68" waitingTime="33.00" waitingCount="1" stopTime="0.00" timeLoss="49.15" rerouteNo="0" devices="tripinfo_57" vType="DEFAULT_VEHTYPE" speedFactor="1.02" vaporized=""/>
    <tripinfo id="76" depart="161.00" departLane="-661251539_0" departPos="5.10" departSpeed="0.00" departDelay="0.06" arrival="264.00" arrivalLane="218680176#0_1" arrivalPos="98.94" arrivalSpeed="13.75" duration="103.00" routeLength="1001.21" waitingTime="14.00" waitingCount="2" stopTime="0.00" timeLoss="31.89" rerouteNo="0" devices="tripinfo_76" vType="DEFAULT_VEHTYPE" speedFactor="1.03" vaporized=""/>
    <tripinfo id="91" depart="193.00" departLane="E8_0" departPos="5.10" departSpeed="0.00" departDelay="0.29" arrival="268.00" arrivalLane="-256961141#1_0" arrivalPos="204.72" arrivalSpeed="11.85" duration="75.00" routeLength="832.89" waitingTime="0.00" waitingCount="0" stopTime="0.00" timeLoss="8.04" rerouteNo="0" devices="tripinfo_91" vType="DEFAULT_VEHTYPE" speedFactor="0.90" vaporized=""/>
    <tripinfo id="5" depart="11.00" departLane="-226276377#1_0" departPos="5.10" departSpeed="0.00" departDelay="0.41" arrival="271.00" arrivalLane="218680176#0_1" arrivalPos="98.94" arrivalSpeed="11.28" duration="260.00" routeLength="1158.55" waitingTime="150.00" waitingCount="2" stopTime="0.00" timeLoss="167.54" rerouteNo="0" devices="tripinfo_5" vType="DEFAULT_VEHTYPE" speedFactor="0.87" vaporized=""/>
    <tripinfo id="70" depart="149.00" departLane="256961141#0_0" departPos="5.10" departSpeed="0.00" departDelay="0.76" arrival="273.00" arrivalLane="218680176#0_1" arrivalPos="98.94" arrivalSpeed="14.18" duration="124.00" routeLength="1207.47" waitingTime="23.00" waitingCount="2" stopTime="0.00" timeLoss="47.69" rerouteNo="0" devices="tripinfo_70" vType="DEFAULT_VEHTYPE" speedFactor="1.11" vaporized=""/>
    <tripinfo id="43" depart="92.00" departLane="E8_0" departPos="5.10" departSpeed="0.00" departDelay="0.94" arrival="275.00" arrivalLane="218680176#0_1" arrivalPos="98.94" arrivalSpeed="14.23" duration="183.00" routeLength="1637.20" waitingTime="57.00" waitingCount="2" stopTime="0.00" timeLoss="76.30" rerouteNo="0" devices="tripinfo_43" vType="DEFAULT_VEHTYPE" speedFactor="1.08" vaporized=""/>
    <tripinfo id="48" depart="102.00" departLane="E8_0" departPos="5.10" departSpeed="0.00" departDelay="0.35" arrival="281.00" arrivalLane="218680176#0_1" arrivalPos="98.94" arrivalSpeed="13.72" duration="179.00" routeLength="1637.20" waitingTime="51.00" waitingCount="1" stopTime="0.00" timeLoss="65.33" rerouteNo="0" devices="tripinfo_48" vType="DEFAULT_VEHTYPE" speedFactor="1.01" vaporized=""/>
    <tripinfo id="64" depart="136.00" departLane="978867529_0" departPos="5.10" departSpeed="0.00" departDelay="0.47" arrival="281.00" arrivalLane="39907424_0" arrivalPos="316.44" arrivalSpeed="11.80" duration="145.00" routeLength="1216.15" waitingTime="30.00" waitingCount="2" stopTime="0.00" timeLoss="51.20" rerouteNo="0" devices="tripinfo_64" vType="DEFAULT_VEHTYPE" speedFactor="0.88" vaporized=""/>
    <tripinfo id="38" depart="81.00" departLane="E8_0" departPos="5.10" departSpeed="0.00" departDelay="0.53" arrival="291.00" arrivalLane="218680176#0_1" arrivalPos="98.94" arrivalSpeed="13.32" duration="210.00" routeLength="1637.20" waitingTime="75.00" waitingCount="2" stopTime="0.00" timeLoss="96.55" rerouteNo="0" devices="tripinfo_38" vType="DEFAULT_VEHTYPE" speedFactor="1.01" vaporized=""/>
    <tripinfo id="29" depart="63.00" departLane="-226276377#1_0" departPos="5.10" departSpeed="0.00" departDelay="1.59" arrival="296.00" arrivalLane="210831347#0_1" arrivalPos="149.88" arrivalSpeed="12.59" duration="233.00" routeLength="888.52" waitingTime="150.00" waitingCount="2" stopTime="0.00" timeLoss="166.49" rerouteNo="0" devices="tripinfo_29" vType="DEFAULT_VEHTYPE" speedFactor="0.92" vaporized=""/>
    <tripinfo id="53" depart="113.00" departLane="-226276377#1_0" departPos="5.10" departSpeed="0.00" departDelay="0.76" arrival="297.00" arrivalLane="210831347#0_1" arrivalPos="149.88" arrivalSpeed="13.41" duration="184.00" routeLength="888.52" waitingTime="102.00" waitingCount="2" stopTime="0.00" timeLoss="127.04" rerouteNo="0" devices="tripinfo_53" vType="DEFAULT_VEHTYPE" speedFactor="1.07" vaporized=""/>
    <tripinfo id="79" depart="168.00" departLane="-231177697#2_0" departPos="5.10" departSpeed="0.00" departDelay="0.71" arrival="297.00" arrivalLane="153964138#0_0" arrivalPos="337.99" arrivalSpeed="17.60" duration="129.00" routeLength="417.38" waitingTime="87.00" waitingCount="2" stopTime="0.00" timeLoss="103.60" rerouteNo="0" devices="tripinfo_79" vType="DEFAULT_VEHTYPE" speedFactor="1.06" vaporized=""/>
    <tripinfo id="12" depart="26.00" departLane="E8_0" departPos="5.10" departSpeed="0.00" departDelay="0.59" arrival="299.00" arrivalLane="210831347#0_1" arrivalPos="149.88" arrivalSpeed="13.50" duration="273.00" routeLength="1367.17" waitingTime="160.00" waitingCount="2" stopTime="0.00" timeLoss="181.49" rerouteNo="0" devices="tripinfo_12" vType="DEFAULT_VEHTYPE" speedFactor="1.04" vaporized=""/>
    <tripinfo id="92" depart="195.00" departLane="-661251539_0" departPos="5.10" departSpeed="0.00" departDelay="0.18" arrival="302.00" arrivalLane="210831347#0_1" arrivalPos="149.88" arrivalSpeed="12.13" duration="107.00" routeLength="731.18" waitingTime="28.00" waitingCount="2" stopTime="0.00" timeLoss="47.94" rerouteNo="0" devices="tripinfo_92" vType="DEFAULT_VEHTYPE" speedFactor="0.91" vaporized=""/>
    <tripinfo id="62" depart="132.00" departLane="-218680176#1_0" departPos="5.10" departSpeed="0.00" departDelay="0.71" arrival="303.00" arrivalLane="210831345#1_1" arrivalPos="264.29" arrivalSpeed="13.78" duration="171.00" routeLength="699.94" waitingTime="101.00" waitingCount="2" stopTime="0.00" timeLoss="119.91" rerouteNo="0" devices="tripinfo_62" vType="DEFAULT_VEHTYPE" speedFactor="1.02" vaporized=""/>
    <tripinfo id="114" depart="242.00" departLane="-226276377#1_0" departPos="5.10" departSpeed="0.00" departDelay="0.59" arrival="304.00" arrivalLane="450554042#0_0" arrivalPos="622.66" arrivalSpeed="14.87" duration="62.00" routeLength="763.53" waitingTime="0.00" waitingCount="0" stopTime="0.00" timeLoss="7.44" rerouteNo="0" devices="tripinfo_114" vType="DEFAULT_VEHTYPE" speedFactor="0.90" vaporized=""/>
    <tripinfo id="55" depart="117.00" departLane="978867529_0" departPos="5.10" departSpeed="0.00" departDelay="0.53" arrival="306.00" arrivalLane="210831345#1_1" arrivalPos="264.29" arrivalSpeed="13.34" duration="189.00" routeLength="951.92" waitingTime="104.00" waitingCount="2" stopTime="0.00" timeLoss="122.68" rerouteNo="0" devices="tripinfo_55" vType="DEFAULT_VEHTYPE" speedFactor="1.00" vaporized=""/>
    <tripinfo id="1" depart="3.00" departLane="-231177697#2_0" departPos="5.10" departSpeed="0.00" departDelay="0.88" arrival="307.00" arrivalLane="210831345#1_0" arrivalPos="264.29" arrivalSpeed="15.06" duration="304.00" routeLength="696.92" waitingTime="240.00" waitingCount="2" stopTime="0.00" timeLoss="259.99" rerouteNo="0" devices="tripinfo_1" vType="DEFAULT_VEHTYPE" speedFactor="1.17" vaporized=""/>
    <tripinfo id="21" depart="45.00" departLane="-231177697#2_0" departPos="5.10" departSpeed="0.00" departDelay="0.53" arrival="309.00" arrivalLane="210831345#1_1" arrivalPos="264.29" arrivalSpeed="13.09" duration="264.00" routeLength="696.92" waitingTime="195.00" waitingCount="2" stopTime="0.00" timeLoss="213.59" rerouteNo="0" devices="tripinfo_21" vType="DEFAULT_VEHTYPE" speedFactor="1.02" vaporized=""/>
    <tripinfo id="34" depart="72.00" departLane="-231177697#2_0" departPos="5.10" departSpeed="0.00" departDelay="0.00" arrival="311.00" arrivalLane="210831345#1_1" arrivalPos="264.29" arrivalSpeed="13.30" duration="239.00" routeLength="696.92" waitingTime="167.00" waitingCount="3" stopTime="0.00" timeLoss="187.80" rerouteNo="0" devices="tripinfo_34" vType="DEFAULT_VEHTYPE" speedFactor="1.00" vaporized=""/>
    <tripinfo id="132" depart="280.00" departLane="978867529_0" departPos="5.10" departSpeed="0.00" departDelay="0.47" arrival="311.00" arrivalLane="231177697#0_1" arrivalPos="74.44" arrivalSpeed="14.20" duration="31.00" routeLength="437.06" waitingTime="0.00" waitingCount="0" stopTime="0.00" timeLoss="4.94" rerouteNo="0" devices="tripinfo_132" vType="DEFAULT_VEHTYPE" speedFactor="1.09" vaporized=""/>
    <tripinfo id="39" depart="83.00" departLane="-231177697#2_0" departPos="5.10" departSpeed="0.00" departDelay="0.41" arrival="315.00" arrivalLane="210831345#1_0" arrivalPos="264.29" arrivalSpeed="11.72" duration="232.00" routeLength="696.92" waitingTime="155.00" waitingCount="3" stopTime="0.00" timeLoss="175.99" rerouteNo="0" devices="tripinfo_39" vType="DEFAULT_VEHTYPE" speedFactor="0.91" vaporized=""/>
    <tripinfo id="117" depart="248.00" departLane="-231177697#2_0" departPos="5.10" departSpeed="0.00" departDelay="0.24" arrival="321.00" arrivalLane="153964138#0_0" arrivalPos="337.99" arrivalSpeed="17.79" duration="73.00" routeLength="417.38" waitingTime="34.00" waitingCount="2" stopTime="0.00" timeLoss="48.14" rerouteNo="0" devices="tripinfo_117" vType="DEFAULT_VEHTYPE" speedFactor="1.08" vaporized=""/>
    <tripinfo id="86" depart="183.00" departLane="256961141#0_0" departPos="5.10" departSpeed="0.00" departDelay="0.88" arrival="324.00" arrivalLane="39907424_0" arrivalPos="316.44" arrivalSpeed="8.97" duration="141.00" routeLength="873.95" waitingTime="45.00" waitingCount="1" stopTime="0.00" timeLoss="58.92" rerouteNo="0" devices="tripinfo_86" vType="DEFAULT_VEHTYPE" speedFactor="0.74" vaporized=""/>
    <tripinfo id="113" depart="240.00" departLane="256961141#0_0" departPos="5.10" departSpeed="0.00" departDelay="0.71" arrival="326.00" arrivalLane="39907424_0" arrivalPos="316.44" arrivalSpeed="11.69" duration="86.00" routeLength="873.95" waitingTime="0.00" waitingCount="0" stopTime="0.00" timeLoss="17.05" rerouteNo="0" devices="tripinfo_113" vType="DEFAULT_VEHTYPE" speedFactor="0.88" vaporized=""/>
    <tripinfo id="60" depart="128.00" departLane="666135205#0_0" departPos="5.10" departSpeed="0.00" departDelay="0.94" arrival="331.00" arrivalLane="218680176#0_1" arrivalPos="98.94" arrivalSpeed="14.29" duration="203.00" routeLength="693.09" waitingTime="145.00" waitingCount="1" stopTime="0.00" timeLoss="156.46" rerouteNo="0" devices="tripinfo_60" vType="DEFAULT_VEHTYPE" speedFactor="1.10" vaporized=""/>
    <tripinfo id="145" depart="308.00" departLane="-218680176#1_0" departPos="5.10" departSpeed="0.00" departDelay="0.94" arrival="334.00" arrivalLane="231177697#0_0" arrivalPos="74.44" arrivalSpeed="12.28" duration="26.00" routeLength="205.97" waitingTime="1.00" waitingCount="1" stopTime="0.00" timeLoss="9.44" rerouteNo="0" devices="tripinfo_145" vType="DEFAULT_VEHTYPE" speedFactor="0.91" vaporized=""/>
    <tripinfo id="75" depart="159.00" departLane="E8_0" departPos="5.10" departSpeed="0.00" departDelay="0.18" arrival="343.00" arrivalLane="226276377#0_1" arrivalPos="135.52" arrivalSpeed="13.21" duration="184.00" routeLength="784.51" waitingTime="114.00" waitingCount="1" stopTime="0.00" timeLoss="126.03" rerouteNo="0" devices="tripinfo_75" vType="DEFAULT_VEHTYPE" speedFactor="0.99" vaporized=""/>
    <tripinfo id="85" depart="180.00" departLane="E8_0" departPos="5.10" departSpeed="0.00" departDelay="0.00" arrival="345.00" arrivalLane="226276377#0_1" arrivalPos="135.52" arrivalSpeed="14.11" duration="165.00" routeLength="784.51" waitingTime="100.00" waitingCount="1" stopTime="0.00" timeLoss="112.17" rerouteNo="0" devices="tripinfo_85" vType="DEFAULT_VEHTYPE" speedFactor="1.09" vaporized=""/>
    <tripinfo id="44" depart="94.00" departLane="-218680176#1_0" departPos="5.10" departSpeed="0.00" departDelay="0.82" arrival="347.00" arrivalLane="-256961141#1_1" arrivalPos="204.72" arrivalSpeed="13.91" duration="253.00" routeLength="1207.38" waitingTime="158.00" waitingCount="2" stopTime="0.00" timeLoss="176.24" rerouteNo="0" devices="tripinfo_44" vType="DEFAULT_VEHTYPE" speedFactor="1.06" vaporized=""/>
    <tripinfo id="110" depart="233.00" departLane="E8_0" departPos="5.10" departSpeed="0.00" departDelay="0.06" arrival="347.00" arrivalLane="226276377#0_1" arrivalPos="135.52" arrivalSpeed="14.54" duration="114.00" routeLength="784.51" waitingTime="51.00" waitingCount="1" stopTime="0.00" timeLoss="62.66" rerouteNo="0" devices="tripinfo_110" vType="DEFAULT_VEHTYPE" speedFactor="1.13" vaporized=""/>
    <tripinfo id="121" depart="257.00" departLane="256961141#0_0" departPos="5.10" departSpeed="0.00" departDelay="0.76" arrival="348.00" arrivalLane="450554042#0_0" arrivalPos="622.66" arrivalSpeed="15.93" duration="91.00" routeLength="853.74" waitingTime="23.00" waitingCount="1" stopTime="0.00" timeLoss="34.29" rerouteNo="0" devices="tripinfo_121" vType="DEFAULT_VEHTYPE" speedFactor="0.96" vaporized=""/>
    <tripinfo id="20" depart="43.00" departLane="666135205#0_0" departPos="5.10" departSpeed="0.00" departDelay="0.65" arrival="350.00" arrivalLane="-256961141#1_1" arrivalPos="204.72" arrivalSpeed="13.47" duration="307.00" routeLength="1068.72" waitingTime="219.00" waitingCount="2" stopTime="0.00" timeLoss="235.32" rerouteNo="0" devices="tripinfo_20" vType="DEFAULT_VEHTYPE" speedFactor="1.00" vaporized=""/>