<?xml version="1.0" encoding="UTF-8"?>

<!-- generated on 2024-09-03 02:47:43 by Eclipse SUMO sumo Version 1.20.0
<configuration xmlns:xsi="http://www.w3.org/2001/XMLSchema-instance" xsi:noNamespaceSchemaLocation="http://sumo.dlr.de/xsd/sumoConfiguration.xsd">

    <input>
        <net-file value="c:\self\School\Master\Disertation\code\RESCO\resco_benchmark\environments/unirii/osm.net.xml.gz"/>
        <route-files value="c:\self\School\Master\Disertation\code\RESCO\resco_benchmark\environments/unirii/osm.passenger.trips.xml"/>
        <additional-files value="c:\self\School\Master\Disertation\code\RESCO\resco_benchmark\environments/unirii/osm.poly.xml.gz"/>
    </input>

    <output>
        <tripinfo-output value="C:\self\School\Master\Disertation\code\RESCO\results\IA2C-tr0-unirii-0-drq_norm-wait_norm\tripinfo_59.xml"/>
        <tripinfo-output.write-unfinished value="true"/>
    </output>

    <processing>
        <ignore-route-errors value="true"/>
        <time-to-teleport value="-1"/>
    </processing>

    <routing>
        <device.rerouting.adaptation-steps value="18"/>
        <device.rerouting.adaptation-interval value="10"/>
    </routing>

    <report>
        <verbose value="true"/>
        <no-warnings value="True"/>
        <duration-log.statistics value="true"/>
        <no-step-log value="True"/>
    </report>

    <traci_server>
        <remote-port value="52415"/>
    </traci_server>

    <random_number>
        <random value="true"/>
    </random_number>

    <gui_only>
        <gui-settings-file value="c:\self\School\Master\Disertation\code\RESCO\resco_benchmark\environments/unirii/osm.view.xml"/>
    </gui_only>

</configuration>
-->

<tripinfos xmlns:xsi="http://www.w3.org/2001/XMLSchema-instance" xsi:noNamespaceSchemaLocation="http://sumo.dlr.de/xsd/tripinfo_file.xsd">
    <tripinfo id="3" depart="7.00" departLane="E8_0" departPos="5.10" departSpeed="0.00" departDelay="0.65" arrival="68.00" arrivalLane="-256961141#1_0" arrivalPos="204.72" arrivalSpeed="15.79" duration="61.00" routeLength="832.89" waitingTime="0.00" waitingCount="0" stopTime="0.00" timeLoss="8.82" rerouteNo="0" devices="tripinfo_3" vType="DEFAULT_VEHTYPE" speedFactor="1.18" vaporized=""/>
    <tripinfo id="6" depart="13.00" departLane="-218680176#1_0" departPos="5.10" departSpeed="0.00" departDelay="0.29" arrival="108.00" arrivalLane="153964138#0_1" arrivalPos="337.99" arrivalSpeed="13.51" duration="95.00" routeLength="462.27" waitingTime="51.00" waitingCount="1" stopTime="0.00" timeLoss="59.86" rerouteNo="0" devices="tripinfo_6" vType="DEFAULT_VEHTYPE" speedFactor="0.84" vaporized=""/>
    <tripinfo id="2" depart="5.00" departLane="666135205#0_0" departPos="5.10" departSpeed="0.00" departDelay="0.76" arrival="112.00" arrivalLane="231177697#0_0" arrivalPos="74.44" arrivalSpeed="12.41" duration="107.00" routeLength="649.17" waitingTime="38.00" waitingCount="2" stopTime="0.00" timeLoss="54.02" rerouteNo="0" devices="tripinfo_2" vType="DEFAULT_VEHTYPE" speedFactor="0.90" vaporized=""/>
    <tripinfo id="16" depart="34.00" departLane="256961141#0_0" departPos="5.10" departSpeed="0.00" departDelay="0.12" arrival="121.00" arrivalLane="450554042#0_0" arrivalPos="622.66" arrivalSpeed="16.96" duration="87.00" routeLength="853.74" waitingTime="22.00" waitingCount="1" stopTime="0.00" timeLoss="34.26" rerouteNo="0" devices="tripinfo_16" vType="DEFAULT_VEHTYPE" speedFactor="1.04" vaporized=""/>
    <tripinfo id="4" depart="9.00" departLane="-661251539_0" departPos="5.10" departSpeed="0.00" departDelay="0.53" arrival="124.00" arrivalLane="-256961141#1_1" arrivalPos="204.72" arrivalSpeed="12.93" duration="115.00" routeLength="872.91" waitingTime="37.00" waitingCount="1" stopTime="0.00" timeLoss="51.52" rerouteNo="0" devices="tripinfo_4" vType="DEFAULT_VEHTYPE" speedFactor="0.95" vaporized=""/>
    <tripinfo id="0" depart="0.00" departLane="65746828#0_0" departPos="5.10" departSpeed="0.00" departDelay="0.00" arrival="126.00" arrivalLane="-256961141#1_1" arrivalPos="204.72" arrivalSpeed="13.49" duration="126.00" routeLength="931.50" waitingTime="46.00" waitingCount="2" stopTime="0.00" timeLoss="64.34" rerouteNo="0" devices="tripinfo_0" vType="DEFAULT_VEHTYPE" speedFactor="1.01" vaporized=""/>
    <tripinfo id="1" depart="3.00" departLane="-231177697#2_0" departPos="5.10" departSpeed="0.00" departDelay="0.88" arrival="127.00" arrivalLane="210831345#1_1" arrivalPos="264.29" arrivalSpeed="14.04" duration="124.00" routeLength="696.92" waitingTime="64.00" waitingCount="1" stopTime="0.00" timeLoss="73.98" rerouteNo="0" devices="tripinfo_1" vType="DEFAULT_VEHTYPE" speedFactor="1.03" vaporized=""/>
    <tripinfo id="11" depart="24.00" departLane="-661251539_0" departPos="5.10" departSpeed="0.00" departDelay="0.71" arrival="127.00" arrivalLane="153964138#0_1" arrivalPos="337.99" arrivalSpeed="17.44" duration="103.00" routeLength="1239.04" waitingTime="8.00" waitingCount="1" stopTime="0.00" timeLoss="25.93" rerouteNo="0" devices="tripinfo_11" vType="DEFAULT_VEHTYPE" speedFactor="1.11" vaporized=""/>
    <tripinfo id="9" depart="20.00" departLane="978867529_0" departPos="5.10" departSpeed="0.00" departDelay="0.94" arrival="128.00" arrivalLane="-256961141#1_1" arrivalPos="204.72" arrivalSpeed="14.22" duration="108.00" routeLength="1459.36" waitingTime="1.00" waitingCount="1" stopTime="0.00" timeLoss="16.92" rerouteNo="0" devices="tripinfo_9" vType="DEFAULT_VEHTYPE" speedFactor="1.06" vaporized=""/>
    <tripinfo id="30" depart="64.00" departLane="E8_0" departPos="5.10" departSpeed="0.00" departDelay="0.47" arrival="129.00" arrivalLane="226276377#0_1" arrivalPos="135.52" arrivalSpeed="13.31" duration="65.00" routeLength="784.51" waitingTime="0.00" waitingCount="0" stopTime="0.00" timeLoss="6.64" rerouteNo="0" devices="tripinfo_30" vType="DEFAULT_VEHTYPE" speedFactor="0.98" vaporized=""/>
    <tripinfo id="29" depart="63.00" departLane="-226276377#1_0" departPos="5.10" departSpeed="0.00" departDelay="1.59" arrival="134.00" arrivalLane="210831347#0_1" arrivalPos="149.88" arrivalSpeed="14.46" duration="71.00" routeLength="888.52" waitingTime="1.00" waitingCount="1" stopTime="0.00" timeLoss="14.77" rerouteNo="0" devices="tripinfo_29" vType="DEFAULT_VEHTYPE" speedFactor="1.09" vaporized=""/>
    <tripinfo id="21" depart="45.00" departLane="-231177697#2_0" departPos="5.10" departSpeed="0.00" departDelay="0.53" arrival="141.00" arrivalLane="210831345#1_0" arrivalPos="264.29" arrivalSpeed="10.36" duration="96.00" routeLength="696.92" waitingTime="22.00" waitingCount="1" stopTime="0.00" timeLoss="33.63" rerouteNo="0" devices="tripinfo_21" vType="DEFAULT_VEHTYPE" speedFactor="0.82" vaporized=""/>
    <tripinfo id="34" depart="72.00" departLane="-231177697#2_0" departPos="5.10" departSpeed="0.00" departDelay="0.00" arrival="141.00" arrivalLane="210831345#1_1" arrivalPos="264.29" arrivalSpeed="13.23" duration="69.00" routeLength="696.92" waitingTime="1.00" waitingCount="1" stopTime="0.00" timeLoss="16.66" rerouteNo="0" devices="tripinfo_34" vType="DEFAULT_VEHTYPE" speedFactor="0.98" vaporized=""/>
    <tripinfo id="40" depart="85.00" departLane="65746828#0_0" departPos="5.10" departSpeed="0.00" departDelay="0.29" arrival="147.00" arrivalLane="210831345#1_0" arrivalPos="264.29" arrivalSpeed="13.95" duration="62.00" routeLength="446.75" waitingTime="19.00" waitingCount="1" stopTime="0.00" timeLoss="31.19" rerouteNo="0" devices="tripinfo_40" vType="DEFAULT_VEHTYPE" speedFactor="1.05" vaporized=""/>
    <tripinfo id="50" depart="106.00" departLane="-218680176#1_0" departPos="5.10" departSpeed="0.00" departDelay="0.12" arrival="152.00" arrivalLane="231177697#0_0" arrivalPos="74.44" arrivalSpeed="13.14" duration="46.00" routeLength="205.97" waitingTime="18.00" waitingCount="1" stopTime="0.00" timeLoss="31.00" rerouteNo="0" devices="tripinfo_50" vType="DEFAULT_VEHTYPE" speedFactor="0.99" vaporized=""/>
    <tripinfo id="35" depart="75.00" departLane="-226276377#1_0" departPos="5.10" departSpeed="0.00" departDelay="0.88" arrival="159.00" arrivalLane="450554042#0_0" arrivalPos="622.66" arrivalSpeed="19.97" duration="84.00" routeLength="763.53" waitingTime="32.00" waitingCount="1" stopTime="0.00" timeLoss="44.84" rerouteNo="0" devices="tripinfo_35" vType="DEFAULT_VEHTYPE" speedFactor="1.23" vaporized=""/>
    <tripinfo id="22" depart="47.00" departLane="-218680176#1_0" departPos="5.10" departSpeed="0.00" departDelay="0.41" arrival="182.00" arrivalLane="210831345#1_0" arrivalPos="264.29" arrivalSpeed="15.67" duration="135.00" routeLength="699.94" waitingTime="69.00" waitingCount="1" stopTime="0.00" timeLoss="89.95" rerouteNo="0" devices="tripinfo_22" vType="DEFAULT_VEHTYPE" speedFactor="1.16" vaporized=""/>
    <tripinfo id="36" depart="77.00" departLane="978867529_0" departPos="5.10" departSpeed="0.00" departDelay="0.76" arrival="184.00" arrivalLane="210831345#1_1" arrivalPos="264.29" arrivalSpeed="13.76" duration="107.00" routeLength="951.92" waitingTime="24.00" waitingCount="1" stopTime="0.00" timeLoss="43.02" rerouteNo="0" devices="tripinfo_36" vType="DEFAULT_VEHTYPE" speedFactor="1.02" vaporized=""/>
    <tripinfo id="39" depart="83.00" departLane="-231177697#2_0" departPos="5.10" departSpeed="0.00" departDelay="0.41" arrival="184.00" arrivalLane="210831345#1_0" arrivalPos="264.29" arrivalSpeed="9.92" duration="101.00" routeLength="696.92" waitingTime="25.00" waitingCount="1" stopTime="0.00" timeLoss="36.86" rerouteNo="0" devices="tripinfo_39" vType="DEFAULT_VEHTYPE" speedFactor="0.80" vaporized=""/>
    <tripinfo id="23" depart="50.00" departLane="-218680176#1_0" departPos="5.10" departSpeed="0.00" departDelay="1.29" arrival="186.00" arrivalLane="210831345#1_1" arrivalPos="264.29" arrivalSpeed="16.53" duration="136.00" routeLength="699.94" waitingTime="67.00" waitingCount="1" stopTime="0.00" timeLoss="92.87" rerouteNo="0" devices="tripinfo_23" vType="DEFAULT_VEHTYPE" speedFactor="1.20" vaporized=""/>
    <tripinfo id="62" depart="132.00" departLane="-218680176#1_0" departPos="5.10" departSpeed="0.00" departDelay="0.71" arrival="190.00" arrivalLane="210831345#1_1" arrivalPos="264.29" arrivalSpeed="14.92" duration="58.00" routeLength="699.94" waitingTime="0.00" waitingCount="0" stopTime="0.00" timeLoss="10.19" rerouteNo="0" devices="tripinfo_62" vType="DEFAULT_VEHTYPE" speedFactor="1.09" vaporized=""/>
    <tripinfo id="27" depart="58.00" departLane="65746828#0_0" departPos="5.10" departSpeed="0.00" departDelay="0.82" arrival="218.00" arrivalLane="226276377#0_0" arrivalPos="135.52" arrivalSpeed="12.39" duration="160.00" routeLength="841.69" waitingTime="83.00" waitingCount="2" stopTime="0.00" timeLoss="100.50" rerouteNo="0" devices="tripinfo_27" vType="DEFAULT_VEHTYPE" speedFactor="0.96" vaporized=""/>
    <tripinfo id="61" depart="130.00" departLane="978867529_0" departPos="5.10" departSpeed="0.00" departDelay="0.82" arrival="218.00" arrivalLane="218680176#0_0" arrivalPos="98.94" arrivalSpeed="11.29" duration="88.00" routeLength="442.15" waitingTime="44.00" waitingCount="1" stopTime="0.00" timeLoss="52.48" rerouteNo="0" devices="tripinfo_61" vType="DEFAULT_VEHTYPE" speedFactor="0.83" vaporized=""/>
    <tripinfo id="69" depart="147.00" departLane="666135205#0_0" departPos="5.10" departSpeed="0.00" departDelay="0.88" arrival="228.00" arrivalLane="153964138#0_0" arrivalPos="337.99" arrivalSpeed="14.86" duration="81.00" routeLength="924.87" waitingTime="1.00" waitingCount="1" stopTime="0.00" timeLoss="12.78" rerouteNo="0" devices="tripinfo_69" vType="DEFAULT_VEHTYPE" speedFactor="0.93" vaporized=""/>
    <tripinfo id="10" depart="23.00" departLane="978867529_0" departPos="5.10" departSpeed="0.00" departDelay="1.82" arrival="238.00" arrivalLane="231177697#0_1" arrivalPos="74.44" arrivalSpeed="14.26" duration="215.00" routeLength="437.06" waitingTime="175.00" waitingCount="1" stopTime="0.00" timeLoss="187.51" rerouteNo="0" devices="tripinfo_10" vType="DEFAULT_VEHTYPE" speedFactor="1.04" vaporized=""/>
    <tripinfo id="15" depart="33.00" departLane="978867529_0" departPos="5.10" departSpeed="0.00" departDelay="1.24" arrival="240.00" arrivalLane="231177697#0_1" arrivalPos="74.44" arrivalSpeed="15.25" duration="207.00" routeLength="437.06" waitingTime="168.00" waitingCount="1" stopTime="0.00" timeLoss="181.81" rerouteNo="0" devices="tripinfo_15" vType="DEFAULT_VEHTYPE" speedFactor="1.14" vaporized=""/>
    <tripinfo id="51" depart="108.00" departLane="666135205#0_0" departPos="5.10" departSpeed="0.00" departDelay="0.00" arrival="241.00" arrivalLane="218680176#0_1" arrivalPos="98.94" arrivalSpeed="11.86" duration="133.00" routeLength="693.09" waitingTime="63.00" waitingCount="1" stopTime="0.00" timeLoss="76.11" rerouteNo="0" devices="tripinfo_51" vType="DEFAULT_VEHTYPE" speedFactor="0.91" vaporized=""/>
    <tripinfo id="32" depart="68.00" departLane="978867529_0" departPos="5.10" departSpeed="0.00" departDelay="0.24" arrival="243.00" arrivalLane="231177697#0_1" arrivalPos="74.44" arrivalSpeed="11.78" duration="175.00" routeLength="437.06" waitingTime="133.00" waitingCount="1" stopTime="0.00" timeLoss="143.73" rerouteNo="0" devices="tripinfo_32" vType="DEFAULT_VEHTYPE" speedFactor="0.92" vaporized=""/>
    <tripinfo id="60" depart="128.00" departLane="666135205#0_0" departPos="5.10" departSpeed="0.00" departDelay="0.94" arrival="243.00" arrivalLane="218680176#0_1" arrivalPos="98.94" arrivalSpeed="12.29" duration="115.00" routeLength="693.09" waitingTime="42.00" waitingCount="2" stopTime="0.00" timeLoss="58.13" rerouteNo="0" devices="tripinfo_60" vType="DEFAULT_VEHTYPE" speedFactor="0.91" vaporized=""/>
    <tripinfo id="41" depart="88.00" departLane="65746828#0_0" departPos="5.10" departSpeed="0.00" departDelay="1.18" arrival="244.00" arrivalLane="450554042#0_0" arrivalPos="622.66" arrivalSpeed="17.55" duration="156.00" routeLength="1340.72" waitingTime="55.00" waitingCount="2" stopTime="0.00" timeLoss="77.32" rerouteNo="0" devices="tripinfo_41" vType="DEFAULT_VEHTYPE" speedFactor="1.07" vaporized=""/>
    <tripinfo id="49" depart="105.00" departLane="E8_0" departPos="5.10" departSpeed="0.00" departDelay="1.24" arrival="256.00" arrivalLane="39907424_0" arrivalPos="316.44" arrivalSpeed="13.05" duration="151.00" routeLength="1303.68" waitingTime="43.00" waitingCount="1" stopTime="0.00" timeLoss="58.80" rerouteNo="0" devices="tripinfo_49" vType="DEFAULT_VEHTYPE" speedFactor="0.99" vaporized=""/>
    <tripinfo id="57" depart="121.00" departLane="E8_0" departPos="5.10" departSpeed="0.00" departDelay="0.29" arrival="260.00" arrivalLane="39907424_0" arrivalPos="316.44" arrivalSpeed="12.46" duration="139.00" routeLength="1303.68" waitingTime="26.00" waitingCount="1" stopTime="0.00" timeLoss="42.46" rerouteNo="0" devices="tripinfo_57" vType="DEFAULT_VEHTYPE" speedFactor="0.94" vaporized=""/>
    <tripinfo id="68" depart="144.00" departLane="-218680176#1_0" departPos="5.10" departSpeed="0.00" departDelay="0.00" arrival="261.00" arrivalLane="231177697#0_0" arrivalPos="74.44" arrivalSpeed="10.43" duration="117.00" routeLength="205.97" waitingTime="90.00" waitingCount="1" stopTime="0.00" timeLoss="98.64" rerouteNo="0" devices="tripinfo_68" vType="DEFAULT_VEHTYPE" speedFactor="0.84" vaporized=""/>
    <tripinfo id="78" depart="166.00" departLane="-661251539_0" departPos="5.10" departSpeed="0.00" departDelay="0.82" arrival="267.00" arrivalLane="226276377#0_0" arrivalPos="135.52" arrivalSpeed="11.91" duration="101.00" routeLength="783.10" waitingTime="25.00" waitingCount="2" stopTime="0.00" timeLoss="41.32" rerouteNo="0" devices="tripinfo_78" vType="DEFAULT_VEHTYPE" speedFactor="0.92" vaporized=""/>
    <tripinfo id="79" depart="168.00" departLane="-231177697#2_0" departPos="5.10" departSpeed="0.00" departDelay="0.71" arrival="272.00" arrivalLane="153964138#0_0" arrivalPos="337.99" arrivalSpeed="16.19" duration="104.00" routeLength="417.38" waitingTime="69.00" waitingCount="1" stopTime="0.00" timeLoss="78.41" rerouteNo="0" devices="tripinfo_79" vType="DEFAULT_VEHTYPE" speedFactor="1.05" vaporized=""/>
    <tripinfo id="91" depart="193.00" departLane="E8_0" departPos="5.10" departSpeed="0.00" departDelay="0.29" arrival="272.00" arrivalLane="-256961141#1_0" arrivalPos="204.72" arrivalSpeed="12.50" duration="79.00" routeLength="832.89" waitingTime="7.00" waitingCount="1" stopTime="0.00" timeLoss="16.61" rerouteNo="0" devices="tripinfo_91" vType="DEFAULT_VEHTYPE" speedFactor="0.98" vaporized=""/>
    <tripinfo id="86" depart="183.00" departLane="256961141#0_0" departPos="5.10" departSpeed="0.00" departDelay="0.88" arrival="280.00" arrivalLane="39907424_0" arrivalPos="316.44" arrivalSpeed="12.94" duration="97.00" routeLength="873.95" waitingTime="24.00" waitingCount="1" stopTime="0.00" timeLoss="34.24" rerouteNo="0" devices="tripinfo_86" vType="DEFAULT_VEHTYPE" speedFactor="0.96" vaporized=""/>
    <tripinfo id="115" depart="244.00" departLane="-218680176#1_0" departPos="5.10" departSpeed="0.00" departDelay="0.47" arrival="289.00" arrivalLane="153964138#0_0" arrivalPos="337.99" arrivalSpeed="12.66" duration="45.00" routeLength="462.27" waitingTime="0.00" waitingCount="0" stopTime="0.00" timeLoss="5.05" rerouteNo="0" devices="tripinfo_115" vType="DEFAULT_VEHTYPE" speedFactor="0.76" vaporized=""/>
    <tripinfo id="75" depart="159.00" departLane="E8_0" departPos="5.10" departSpeed="0.00" departDelay="0.18" arrival="293.00" arrivalLane="226276377#0_1" arrivalPos="135.52" arrivalSpeed="13.22" duration="134.00" routeLength="784.51" waitingTime="64.00" waitingCount="1" stopTime="0.00" timeLoss="76.81" rerouteNo="0" devices="tripinfo_75" vType="DEFAULT_VEHTYPE" speedFactor="1.01" vaporized=""/>
    <tripinfo id="12" depart="26.00" departLane="E8_0" departPos="5.10" departSpeed="0.00" departDelay="0.59" arrival="295.00" arrivalLane="210831347#0_1" arrivalPos="149.88" arrivalSpeed="12.87" duration="269.00" routeLength="1367.17" waitingTime="150.00" waitingCount="2" stopTime="0.00" timeLoss="171.14" rerouteNo="0" devices="tripinfo_12" vType="DEFAULT_VEHTYPE" speedFactor="0.97" vaporized=""/>
    <tripinfo id="85" depart="180.00" departLane="E8_0" departPos="5.10" departSpeed="0.00" departDelay="0.00" arrival="295.00" arrivalLane="226276377#0_1" arrivalPos="135.52" arrivalSpeed="12.79" duration="115.00" routeLength="784.51" waitingTime="47.00" waitingCount="1" stopTime="0.00" timeLoss="57.83" rerouteNo="0" devices="tripinfo_85" vType="DEFAULT_VEHTYPE" speedFactor="1.01" vaporized=""/>
    <tripinfo id="92" depart="195.00" departLane="-661251539_0" departPos="5.10" departSpeed="0.00" departDelay="0.18" arrival="296.00" arrivalLane="210831347#0_1" arrivalPos="149.88" arrivalSpeed="14.57" duration="101.00" routeLength="731.18" waitingTime="34.00" waitingCount="2" stopTime="0.00" timeLoss="50.46" rerouteNo="0" devices="tripinfo_92" vType="DEFAULT_VEHTYPE" speedFactor="1.06" vaporized=""/>
    <tripinfo id="20" depart="43.00" departLane="666135205#0_0" departPos="5.10" departSpeed="0.00" departDelay="0.65" arrival="297.00" arrivalLane="-256961141#1_1" arrivalPos="204.72" arrivalSpeed="15.15" duration="254.00" routeLength="1068.72" waitingTime="169.00" waitingCount="2" stopTime="0.00" timeLoss="188.39" rerouteNo="0" devices="tripinfo_20" vType="DEFAULT_VEHTYPE" speedFactor="1.11" vaporized=""/>
    <tripinfo id="128" depart="272.00" departLane="-218680176#1_0" departPos="5.10" departSpeed="0.00" departDelay="0.94" arrival="303.00" arrivalLane="153964138#0_2" arrivalPos="337.99" arrivalSpeed="19.05" duration="31.00" routeLength="462.27" waitingTime="0.00" waitingCount="0" stopTime="0.00" timeLoss="5.00" rerouteNo="0" devices="tripinfo_128" vType="DEFAULT_VEHTYPE" speedFactor="1.17" vaporized=""/>
    <tripinfo id="55" depart="117.00" departLane="978867529_0" departPos="5.10" departSpeed="0.00" departDelay="0.53" arrival="304.00" arrivalLane="210831345#1_1" arrivalPos="264.29" arrivalSpeed="12.63" duration="187.00" routeLength="951.92" waitingTime="101.00" waitingCount="2" stopTime="0.00" timeLoss="118.79" rerouteNo="0" devices="tripinfo_55" vType="DEFAULT_VEHTYPE" speedFactor="0.97" vaporized=""/>
    <tripinfo id="103" depart="219.00" departLane="-661251539_0" departPos="5.10" departSpeed="0.00" departDelay="0.88" arrival="305.00" arrivalLane="-256961141#1_1" arrivalPos="204.72" arrivalSpeed="13.26" duration="86.00" routeLength="872.91" waitingTime="10.00" waitingCount="1" stopTime="0.00" timeLoss="23.05" rerouteNo="0" devices="tripinfo_103" vType="DEFAULT_VEHTYPE" speedFactor="0.97" vaporized=""/>
    <tripinfo id="110" depart="233.00" departLane="E8_0" departPos="5.10" departSpeed="0.00" departDelay="0.06" arrival="309.00" arrivalLane="226276377#0_1" arrivalPos="135.52" arrivalSpeed="11.01" duration="76.00" routeLength="784.51" waitingTime="0.00" waitingCount="0" stopTime="0.00" timeLoss="6.74" rerouteNo="0" devices="tripinfo_110" vType="DEFAULT_VEHTYPE" speedFactor="0.83" vaporized=""/>
    <tripinfo id="99" depart="210.00" departLane="E8_0" departPos="5.10" departSpeed="0.00" departDelay="0.35" arrival="310.00" arrivalLane="39907424_0" arrivalPos="316.44" arrivalSpeed="13.68" duration="100.00" routeLength="1303.68" waitingTime="0.00" waitingCount="0" stopTime="0.00" timeLoss="12.97" rerouteNo="0" devices="tripinfo_99" vType="DEFAULT_VEHTYPE" speedFactor="1.04" vaporized=""/>
    <tripinfo id="90" depart="191.00" departLane="666135205#0_0" departPos="5.10" departSpeed="0.00" departDelay="0.41" arrival="313.00" arrivalLane="231177697#0_0" arrivalPos="74.44" arrivalSpeed="12.26" duration="122.00" routeLength="649.17" waitingTime="59.00" waitingCount="2" stopTime="0.00" timeLoss="71.94" rerouteNo="0" devices="tripinfo_90" vType="DEFAULT_VEHTYPE" speedFactor="0.97" vaporized=""/>
    <tripinfo id="31" depart="66.00" departLane="65746828#0_0" departPos="5.10" departSpeed="0.00" departDelay="0.35" arrival="315.00" arrivalLane="231177697#0_0" arrivalPos="74.44" arrivalSpeed="12.05" duration="249.00" routeLength="558.79" waitingTime="189.00" waitingCount="2" stopTime="0.00" timeLoss="204.58" rerouteNo="0" devices="tripinfo_31" vType="DEFAULT_VEHTYPE" speedFactor="0.94" vaporized=""/>
    <tripinfo id="120" depart="255.00" departLane="-661251539_0" departPos="5.10" departSpeed="0.00" departDelay="0.88" arrival="317.00" arrivalLane="226276377#0_0" arrivalPos="135.52" arrivalSpeed="15.95" duration="62.00" routeLength="783.10" waitingTime="0.00" waitingCount="0" stopTime="0.00" timeLoss="15.25" rerouteNo="0" devices="tripinfo_120" vType="DEFAULT_VEHTYPE" speedFactor="1.17" vaporized=""/>
    <tripinfo id="108" depart="229.00" departLane="65746828#0_0" departPos="5.10" departSpeed="0.00" departDelay="0.29" arrival="318.00" arrivalLane="231177697#0_0" arrivalPos="74.44" arrivalSpeed="11.38" duration="89.00" routeLength="558.79" waitingTime="31.00" waitingCount="1" stopTime="0.00" timeLoss="41.97" rerouteNo="0" devices="tripinfo_108" vType="DEFAULT_VEHTYPE" speedFactor="0.88" vaporized=""/>
    <tripinfo id="47" depart="100.00" departLane="-218680176#1_0" departPos="5.10" departSpeed="0.00" departDelay="0.47" arrival="319.00" arrivalLane="210831347#0_0" arrivalPos="149.88" arrivalSpeed="14.29" duration="219.00" routeLength="560.58" waitingTime="158.00" waitingCount="2" stopTime="0.00" timeLoss="179.43" rerouteNo="0" devices="tripinfo_47" vType="DEFAULT_VEHTYPE" speedFactor="1.07" vaporized=""/>
    <tripinfo id="116" depart="246.00" departLane="65746828#0_0" departPos="5.10" departSpeed="0.00" departDelay="0.35" arrival="321.00" arrivalLane="231177697#0_0" arrivalPos="74.44" arrivalSpeed="10.96" duration="75.00" routeLength="558.79" waitingTime="12.00" waitingCount="1" stopTime="0.00" timeLoss="24.75" rerouteNo="0" devices="tripinfo_116" vType="DEFAULT_VEHTYPE" speedFactor="0.82" vaporized=""/>
    <tripinfo id="59" depart="125.00" departLane="65746828#0_0" departPos="5.10" departSpeed="0.00" departDelay="0.06" arrival="331.00" arrivalLane="153964138#0_0" arrivalPos="337.99" arrivalSpeed="15.07" duration="206.00" routeLength="834.49" waitingTime="125.00" waitingCount="2" stopTime="0.00" timeLoss="143.63" rerouteNo="0" devices="tripinfo_59" vType="DEFAULT_VEHTYPE" speedFactor="0.91" vaporized=""/>
    <tripinfo id="46" depart="98.00" departLane="978867529_0" departPos="5.10" departSpeed="0.00" departDelay="0.59" arrival="332.00" arrivalLane="210831347#0_0" arrivalPos="149.88" arrivalSpeed="11.26" duration="234.00" routeLength="812.56" waitingTime="146.00" waitingCount="2" stopTime="0.00" timeLoss="167.99" rerouteNo="0" devices="tripinfo_46" vType="DEFAULT_VEHTYPE" speedFactor="0.85" vaporized=""/>
    <tripinfo id="114" depart="242.00" departLane="-226276377#1_0" departPos="5.10" departSpeed="0.00" departDelay="0.59" arrival="335.00" arrivalLane="450554042#0_0" arrivalPos="622.66" arrivalSpeed="18.79" duration="93.00" routeLength="763.53" waitingTime="40.00" waitingCount="1" stopTime="0.00" timeLoss="51.69" rerouteNo="0" devices="tripinfo_114" vType="DEFAULT_VEHTYPE" speedFactor="1.18" vaporized=""/>
    <tripinfo id="28" depart="60.00" departLane="-226276377#1_0" departPos="5.10" departSpeed="0.00" departDelay="0.71" arrival="336.00" arrivalLane="231177697#0_0" arrivalPos="74.44" arrivalSpeed="16.18" duration="276.00" routeLength="1114.63" waitingTime="190.00" waitingCount="2" stopTime="0.00" timeLoss="211.68" rerouteNo="0" devices="tripinfo_28" vType="DEFAULT_VEHTYPE" speedFactor="1.22" vaporized=""/>
    <tripinfo id="123" depart="261.00" departLane="-231177697#2_0" departPos="5.10" departSpeed="0.00" departDelay="0.53" arrival="336.00" arrivalLane="210831347#0_0" arrivalPos="149.88" arrivalSpeed="12.31" duration="75.00" routeLength="557.56" waitingTime="14.00" waitingCount="1" stopTime="0.00" timeLoss="29.31" rerouteNo="0" devices="tripinfo_123" vType="DEFAULT_VEHTYPE" speedFactor="0.91" vaporized=""/>
    <tripinfo id="95" depart="202.00" departLane="-661251539_0" departPos="5.10" departSpeed="0.00" departDelay="0.82" arrival="340.00" arrivalLane="210831345#1_0" arrivalPos="264.29" arrivalSpeed="12.34" duration="138.00" routeLength="826.64" waitingTime="52.00" waitingCount="2" stopTime="0.00" timeLoss="71.44" rerouteNo="0" devices="tripinfo_95" vType="DEFAULT_VEHTYPE" speedFactor="0.91" vaporized=""/>
    <tripinfo id="104" depart="222.00" departLane="-661251539_0" departPos="5.10" departSpeed="0.00" departDelay="1.76" arrival="347.00" arrivalLane="450554042#0_0" arrivalPos="622.66" arrivalSpeed="16.11" duration="125.00" routeLength="1282.13" waitingTime="20.00" waitingCount="2" stopTime="0.00" timeLoss="40.48" rerouteNo="0" devices="tripinfo_104" vType="DEFAULT_VEHTYPE" speedFactor="0.98" vaporized=""/>
    <tripinfo id="73" depart="155.00" departLane="256961141#0_0" departPos="5.10" departSpeed="0.00" departDelay="0.41" arrival="348.00" arrivalLane="231177697#0_0" arrivalPos="74.44" arrivalSpeed="11.44" duration="193.00" routeLength="1163.55" waitingTime="87.00" waitingCount="1" stopTime="0.00" timeLoss="103.44" rerouteNo="0" devices="tripinfo_73" vType="DEFAULT_VEHTYPE" speedFactor="0.92" vaporized=""/>
    <tripinfo id="25" depart="53.00" departLane="-661251539_0" departPos="5.10" departSpeed="0.00" departDelay="0.06" arrival="353.00" arrivalLane="153964138#0_1" arrivalPos="337.99" arrivalSpeed="17.40" duration="300.00" routeLength="1239.04" waitingTime="196.00" waitingCount="1" stopTime="0.00" timeLoss="218.73" rerouteNo="0" devices="tripinfo_25" vType="DEFAULT_VEHTYPE" speedFactor="1.05" vaporized=""/>
    <tripinfo id="56" depart="119.00" departLane="256961141#0_0" departPos="5.10" departSpeed="0.00" departDelay="0.41" arrival="353.00" arrivalLane="153964138#0_0" arrivalPos="337.99" arrivalSpeed="17.83" duration="234.00" routeLength="1439.25" waitingTime="123.00" waitingCount="2" stopTime="0.00" timeLoss="145.06" rerouteNo="0" devices="tripinfo_56" vType="DEFAULT_VEHTYPE" speedFactor="1.08" vaporized=""/>
    <tripinfo id="71" depart="151.00" departLane="-231177697#2_0" departPos="5.10" departSpeed="0.00" departDelay="0.65" arrival="356.00" arrivalLane="39907424_0" arrivalPos="316.44" arrivalSpeed="12.81" duration="205.00" routeLength="961.15" waitingTime="117.00" waitingCount="1" stopTime="0.00" timeLoss="134.69" rerouteNo="0" devices="tripinfo_71" vType="DEFAULT_VEHTYPE" speedFactor="0.97" vaporized=""/>
    <tripinfo id="105" depart="223.00" departLane="-231177697#2_0" departPos="5.10" departSpeed="0.00" departDelay="0.65" arrival="357.00" arrivalLane="39907424_0" arrivalPos="316.44" arrivalSpeed="15.92" duration="134.00" routeLength="961.15" waitingTime="49.00" waitingCount="2" stopTime="0.00" timeLoss="76.49" rerouteNo="0" devices="tripinfo_105" vType="DEFAULT_VEHTYPE" speedFactor="1.18" vaporized=""/>
    <tripinfo id="42" depart="89.00" departLane="-661251539_0" departPos="5.10" departSpeed="0.00" departDelay="0.06" arrival="360.00" arrivalLane="153964138#0_0" arrivalPos="337.99" arrivalSpeed="15.27" duration="271.00" routeLength="1239.04" waitingTime="161.00" waitingCount="1" stopTime="0.00" timeLoss="179.93" rerouteNo="0" devices="tripinfo_42" vType="DEFAULT_VEHTYPE" speedFactor="0.94" vaporized=""/>
    <tripinfo id="102" depart="216.00" departLane="256961141#0_0" departPos="5.10" departSpeed="0.00" departDelay="0.00" arrival="361.00" arrivalLane="153964138#0_1" arrivalPos="337.99" arrivalSpeed="17.58" duration="145.00" routeLength="1439.25" waitingTime="35.00" waitingCount="1" stopTime="0.00" timeLoss="54.71" rerouteNo="0" devices="tripinfo_102" vType="DEFAULT_VEHTYPE" speedFactor="1.07" vaporized=""/>
    <tripinfo id="64" depart="136.00" departLane="978867529_0" departPos="5.10" departSpeed="0.00" departDelay="0.47" arrival="365.00" arrivalLane="39907424_0" arrivalPos="316.44" arrivalSpeed="12.94" duration="229.00" routeLength="1216.15" waitingTime="111.00" waitingCount="3" stopTime="0.00" timeLoss="143.45" rerouteNo="0" devices="tripinfo_64" vType="DEFAULT_VEHTYPE" speedFactor="0.96" vaporized=""/>