<?xml version="1.0" encoding="UTF-8"?>

<!-- generated on 2024-09-03 02:48:00 by Eclipse SUMO sumo Version 1.20.0
<configuration xmlns:xsi="http://www.w3.org/2001/XMLSchema-instance" xsi:noNamespaceSchemaLocation="http://sumo.dlr.de/xsd/sumoConfiguration.xsd">

    <input>
        <net-file value="c:\self\School\Master\Disertation\code\RESCO\resco_benchmark\environments/unirii/osm.net.xml.gz"/>
        <route-files value="c:\self\School\Master\Disertation\code\RESCO\resco_benchmark\environments/unirii/osm.passenger.trips.xml"/>
        <additional-files value="c:\self\School\Master\Disertation\code\RESCO\resco_benchmark\environments/unirii/osm.poly.xml.gz"/>
    </input>

    <output>
        <tripinfo-output value="C:\self\School\Master\Disertation\code\RESCO\results\IA2C-tr0-unirii-0-drq_norm-wait_norm\tripinfo_60.xml"/>
        <tripinfo-output.write-unfinished value="true"/>
    </output>

    <processing>
        <ignore-route-errors value="true"/>
        <time-to-teleport value="-1"/>
    </processing>

    <routing>
        <device.rerouting.adaptation-steps value="18"/>
        <device.rerouting.adaptation-interval value="10"/>
    </routing>

    <report>
        <verbose value="true"/>
        <no-warnings value="True"/>
        <duration-log.statistics value="true"/>
        <no-step-log value="True"/>
    </report>

    <traci_server>
        <remote-port value="52426"/>
    </traci_server>

    <random_number>
        <random value="true"/>
    </random_number>

    <gui_only>
        <gui-settings-file value="c:\self\School\Master\Disertation\code\RESCO\resco_benchmark\environments/unirii/osm.view.xml"/>
    </gui_only>

</configuration>
-->

<tripinfos xmlns:xsi="http://www.w3.org/2001/XMLSchema-instance" xsi:noNamespaceSchemaLocation="http://sumo.dlr.de/xsd/tripinfo_file.xsd">
    <tripinfo id="10" depart="23.00" departLane="978867529_0" departPos="5.10" departSpeed="0.00" departDelay="1.82" arrival="53.00" arrivalLane="231177697#0_1" arrivalPos="74.44" arrivalSpeed="15.51" duration="30.00" routeLength="437.06" waitingTime="0.00" waitingCount="0" stopTime="0.00" timeLoss="5.15" rerouteNo="0" devices="tripinfo_10" vType="DEFAULT_VEHTYPE" speedFactor="1.15" vaporized=""/>
    <tripinfo id="3" depart="7.00" departLane="E8_0" departPos="5.10" departSpeed="0.00" departDelay="0.65" arrival="72.00" arrivalLane="-256961141#1_0" arrivalPos="204.72" arrivalSpeed="14.53" duration="65.00" routeLength="832.89" waitingTime="0.00" waitingCount="0" stopTime="0.00" timeLoss="7.78" rerouteNo="0" devices="tripinfo_3" vType="DEFAULT_VEHTYPE" speedFactor="1.06" vaporized=""/>
    <tripinfo id="15" depart="33.00" departLane="978867529_0" departPos="5.10" departSpeed="0.00" departDelay="1.24" arrival="75.00" arrivalLane="231177697#0_1" arrivalPos="74.44" arrivalSpeed="10.52" duration="42.00" routeLength="437.06" waitingTime="0.00" waitingCount="0" stopTime="0.00" timeLoss="5.07" rerouteNo="0" devices="tripinfo_15" vType="DEFAULT_VEHTYPE" speedFactor="0.77" vaporized=""/>
    <tripinfo id="6" depart="13.00" departLane="-218680176#1_0" departPos="5.10" departSpeed="0.00" departDelay="0.29" arrival="107.00" arrivalLane="153964138#0_1" arrivalPos="337.99" arrivalSpeed="13.57" duration="94.00" routeLength="462.27" waitingTime="52.00" waitingCount="1" stopTime="0.00" timeLoss="60.50" rerouteNo="0" devices="tripinfo_6" vType="DEFAULT_VEHTYPE" speedFactor="0.89" vaporized=""/>
    <tripinfo id="16" depart="34.00" departLane="256961141#0_0" departPos="5.10" departSpeed="0.00" departDelay="0.12" arrival="122.00" arrivalLane="450554042#0_0" arrivalPos="622.66" arrivalSpeed="16.36" duration="88.00" routeLength="853.74" waitingTime="23.00" waitingCount="1" stopTime="0.00" timeLoss="33.12" rerouteNo="0" devices="tripinfo_16" vType="DEFAULT_VEHTYPE" speedFactor="1.01" vaporized=""/>
    <tripinfo id="40" depart="85.00" departLane="65746828#0_0" departPos="5.10" departSpeed="0.00" departDelay="0.29" arrival="126.00" arrivalLane="210831345#1_0" arrivalPos="264.29" arrivalSpeed="11.33" duration="41.00" routeLength="446.75" waitingTime="0.00" waitingCount="0" stopTime="0.00" timeLoss="4.67" rerouteNo="0" devices="tripinfo_40" vType="DEFAULT_VEHTYPE" speedFactor="0.89" vaporized=""/>
    <tripinfo id="29" depart="63.00" departLane="-226276377#1_0" departPos="5.10" departSpeed="0.00" departDelay="1.59" arrival="128.00" arrivalLane="210831347#0_1" arrivalPos="149.88" arrivalSpeed="15.68" duration="65.00" routeLength="888.52" waitingTime="1.00" waitingCount="1" stopTime="0.00" timeLoss="13.30" rerouteNo="0" devices="tripinfo_29" vType="DEFAULT_VEHTYPE" speedFactor="1.18" vaporized=""/>
    <tripinfo id="22" depart="47.00" departLane="-218680176#1_0" departPos="5.10" departSpeed="0.00" departDelay="0.41" arrival="129.00" arrivalLane="210831345#1_1" arrivalPos="264.29" arrivalSpeed="12.12" duration="82.00" routeLength="699.94" waitingTime="15.00" waitingCount="2" stopTime="0.00" timeLoss="28.35" rerouteNo="0" devices="tripinfo_22" vType="DEFAULT_VEHTYPE" speedFactor="0.97" vaporized=""/>
    <tripinfo id="1" depart="3.00" departLane="-231177697#2_0" departPos="5.10" departSpeed="0.00" departDelay="0.88" arrival="130.00" arrivalLane="210831345#1_1" arrivalPos="264.29" arrivalSpeed="12.73" duration="127.00" routeLength="696.92" waitingTime="64.00" waitingCount="1" stopTime="0.00" timeLoss="75.21" rerouteNo="0" devices="tripinfo_1" vType="DEFAULT_VEHTYPE" speedFactor="0.98" vaporized=""/>
    <tripinfo id="21" depart="45.00" departLane="-231177697#2_0" departPos="5.10" departSpeed="0.00" departDelay="0.53" arrival="132.00" arrivalLane="210831345#1_1" arrivalPos="264.29" arrivalSpeed="12.45" duration="87.00" routeLength="696.92" waitingTime="24.00" waitingCount="1" stopTime="0.00" timeLoss="35.20" rerouteNo="0" devices="tripinfo_21" vType="DEFAULT_VEHTYPE" speedFactor="0.99" vaporized=""/>
    <tripinfo id="34" depart="72.00" departLane="-231177697#2_0" departPos="5.10" departSpeed="0.00" departDelay="0.00" arrival="134.00" arrivalLane="210831345#1_1" arrivalPos="264.29" arrivalSpeed="14.53" duration="62.00" routeLength="696.92" waitingTime="0.00" waitingCount="0" stopTime="0.00" timeLoss="15.20" rerouteNo="0" devices="tripinfo_34" vType="DEFAULT_VEHTYPE" speedFactor="1.10" vaporized=""/>
    <tripinfo id="32" depart="68.00" departLane="978867529_0" departPos="5.10" departSpeed="0.00" departDelay="0.24" arrival="138.00" arrivalLane="231177697#0_1" arrivalPos="74.44" arrivalSpeed="14.99" duration="70.00" routeLength="437.06" waitingTime="34.00" waitingCount="1" stopTime="0.00" timeLoss="43.89" rerouteNo="0" devices="tripinfo_32" vType="DEFAULT_VEHTYPE" speedFactor="1.10" vaporized=""/>
    <tripinfo id="7" depart="15.00" departLane="65746828#0_0" departPos="5.10" departSpeed="0.00" departDelay="0.18" arrival="140.00" arrivalLane="218680176#0_1" arrivalPos="98.94" arrivalSpeed="13.64" duration="125.00" routeLength="602.71" waitingTime="66.00" waitingCount="2" stopTime="0.00" timeLoss="81.01" rerouteNo="0" devices="tripinfo_7" vType="DEFAULT_VEHTYPE" speedFactor="1.01" vaporized=""/>
    <tripinfo id="30" depart="64.00" departLane="E8_0" departPos="5.10" departSpeed="0.00" departDelay="0.47" arrival="142.00" arrivalLane="226276377#0_1" arrivalPos="135.52" arrivalSpeed="14.67" duration="78.00" routeLength="784.51" waitingTime="14.00" waitingCount="1" stopTime="0.00" timeLoss="24.09" rerouteNo="0" devices="tripinfo_30" vType="DEFAULT_VEHTYPE" speedFactor="1.07" vaporized=""/>
    <tripinfo id="39" depart="83.00" departLane="-231177697#2_0" departPos="5.10" departSpeed="0.00" departDelay="0.41" arrival="147.00" arrivalLane="210831345#1_0" arrivalPos="264.29" arrivalSpeed="11.51" duration="64.00" routeLength="696.92" waitingTime="0.00" waitingCount="0" stopTime="0.00" timeLoss="6.24" rerouteNo="0" devices="tripinfo_39" vType="DEFAULT_VEHTYPE" speedFactor="0.89" vaporized=""/>
    <tripinfo id="4" depart="9.00" departLane="-661251539_0" departPos="5.10" departSpeed="0.00" departDelay="0.53" arrival="151.00" arrivalLane="-256961141#1_1" arrivalPos="204.72" arrivalSpeed="10.76" duration="142.00" routeLength="872.91" waitingTime="57.00" waitingCount="1" stopTime="0.00" timeLoss="69.52" rerouteNo="0" devices="tripinfo_4" vType="DEFAULT_VEHTYPE" speedFactor="0.84" vaporized=""/>
    <tripinfo id="20" depart="43.00" departLane="666135205#0_0" departPos="5.10" departSpeed="0.00" departDelay="0.65" arrival="152.00" arrivalLane="-256961141#1_0" arrivalPos="204.72" arrivalSpeed="14.97" duration="109.00" routeLength="1068.72" waitingTime="28.00" waitingCount="1" stopTime="0.00" timeLoss="42.26" rerouteNo="0" devices="tripinfo_20" vType="DEFAULT_VEHTYPE" speedFactor="1.08" vaporized=""/>
    <tripinfo id="0" depart="0.00" departLane="65746828#0_0" departPos="5.10" departSpeed="0.00" departDelay="0.00" arrival="154.00" arrivalLane="-256961141#1_1" arrivalPos="204.72" arrivalSpeed="12.13" duration="154.00" routeLength="931.50" waitingTime="69.00" waitingCount="2" stopTime="0.00" timeLoss="86.12" rerouteNo="0" devices="tripinfo_0" vType="DEFAULT_VEHTYPE" speedFactor="0.92" vaporized=""/>
    <tripinfo id="27" depart="58.00" departLane="65746828#0_0" departPos="5.10" departSpeed="0.00" departDelay="0.82" arrival="167.00" arrivalLane="226276377#0_0" arrivalPos="135.52" arrivalSpeed="13.36" duration="109.00" routeLength="841.69" waitingTime="34.00" waitingCount="2" stopTime="0.00" timeLoss="51.62" rerouteNo="0" devices="tripinfo_27" vType="DEFAULT_VEHTYPE" speedFactor="0.99" vaporized=""/>
    <tripinfo id="35" depart="75.00" departLane="-226276377#1_0" departPos="5.10" departSpeed="0.00" departDelay="0.88" arrival="188.00" arrivalLane="450554042#0_0" arrivalPos="622.66" arrivalSpeed="17.05" duration="113.00" routeLength="763.53" waitingTime="57.00" waitingCount="1" stopTime="0.00" timeLoss="67.71" rerouteNo="0" devices="tripinfo_35" vType="DEFAULT_VEHTYPE" speedFactor="1.06" vaporized=""/>
    <tripinfo id="50" depart="106.00" departLane="-218680176#1_0" departPos="5.10" departSpeed="0.00" departDelay="0.12" arrival="197.00" arrivalLane="231177697#0_0" arrivalPos="74.44" arrivalSpeed="12.30" duration="91.00" routeLength="205.97" waitingTime="59.00" waitingCount="2" stopTime="0.00" timeLoss="73.90" rerouteNo="0" devices="tripinfo_50" vType="DEFAULT_VEHTYPE" speedFactor="0.92" vaporized=""/>
    <tripinfo id="79" depart="168.00" departLane="-231177697#2_0" departPos="5.10" departSpeed="0.00" departDelay="0.71" arrival="202.00" arrivalLane="153964138#0_0" arrivalPos="337.99" arrivalSpeed="15.49" duration="34.00" routeLength="417.38" waitingTime="0.00" waitingCount="0" stopTime="0.00" timeLoss="6.40" rerouteNo="0" devices="tripinfo_79" vType="DEFAULT_VEHTYPE" speedFactor="0.97" vaporized=""/>
    <tripinfo id="68" depart="144.00" departLane="-218680176#1_0" departPos="5.10" departSpeed="0.00" departDelay="0.00" arrival="203.00" arrivalLane="231177697#0_0" arrivalPos="74.44" arrivalSpeed="11.33" duration="59.00" routeLength="205.97" waitingTime="22.00" waitingCount="3" stopTime="0.00" timeLoss="42.39" rerouteNo="0" devices="tripinfo_68" vType="DEFAULT_VEHTYPE" speedFactor="0.91" vaporized=""/>
    <tripinfo id="41" depart="88.00" departLane="65746828#0_0" departPos="5.10" departSpeed="0.00" departDelay="1.18" arrival="211.00" arrivalLane="450554042#0_0" arrivalPos="622.66" arrivalSpeed="14.61" duration="123.00" routeLength="1340.72" waitingTime="16.00" waitingCount="1" stopTime="0.00" timeLoss="28.18" rerouteNo="0" devices="tripinfo_41" vType="DEFAULT_VEHTYPE" speedFactor="0.88" vaporized=""/>
    <tripinfo id="2" depart="5.00" departLane="666135205#0_0" departPos="5.10" departSpeed="0.00" departDelay="0.76" arrival="212.00" arrivalLane="231177697#0_0" arrivalPos="74.44" arrivalSpeed="13.88" duration="207.00" routeLength="649.17" waitingTime="144.00" waitingCount="2" stopTime="0.00" timeLoss="160.33" rerouteNo="0" devices="tripinfo_2" vType="DEFAULT_VEHTYPE" speedFactor="1.03" vaporized=""/>
    <tripinfo id="28" depart="60.00" departLane="-226276377#1_0" departPos="5.10" departSpeed="0.00" departDelay="0.71" arrival="214.00" arrivalLane="231177697#0_0" arrivalPos="74.44" arrivalSpeed="15.42" duration="154.00" routeLength="1114.63" waitingTime="53.00" waitingCount="4" stopTime="0.00" timeLoss="84.27" rerouteNo="0" devices="tripinfo_28" vType="DEFAULT_VEHTYPE" speedFactor="1.11" vaporized=""/>
    <tripinfo id="61" depart="130.00" departLane="978867529_0" departPos="5.10" departSpeed="0.00" departDelay="0.82" arrival="218.00" arrivalLane="218680176#0_0" arrivalPos="98.94" arrivalSpeed="14.46" duration="88.00" routeLength="442.15" waitingTime="47.00" waitingCount="1" stopTime="0.00" timeLoss="60.33" rerouteNo="0" devices="tripinfo_61" vType="DEFAULT_VEHTYPE" speedFactor="1.06" vaporized=""/>
    <tripinfo id="49" depart="105.00" departLane="E8_0" departPos="5.10" departSpeed="0.00" departDelay="1.24" arrival="219.00" arrivalLane="39907424_0" arrivalPos="316.44" arrivalSpeed="12.02" duration="114.00" routeLength="1303.68" waitingTime="0.00" waitingCount="0" stopTime="0.00" timeLoss="9.75" rerouteNo="0" devices="tripinfo_49" vType="DEFAULT_VEHTYPE" speedFactor="0.87" vaporized=""/>
    <tripinfo id="57" depart="121.00" departLane="E8_0" departPos="5.10" departSpeed="0.00" departDelay="0.29" arrival="221.00" arrivalLane="39907424_0" arrivalPos="316.44" arrivalSpeed="12.96" duration="100.00" routeLength="1303.68" waitingTime="0.00" waitingCount="0" stopTime="0.00" timeLoss="11.32" rerouteNo="0" devices="tripinfo_57" vType="DEFAULT_VEHTYPE" speedFactor="1.02" vaporized=""/>
    <tripinfo id="11" depart="24.00" departLane="-661251539_0" departPos="5.10" departSpeed="0.00" departDelay="0.71" arrival="227.00" arrivalLane="153964138#0_0" arrivalPos="337.99" arrivalSpeed="16.45" duration="203.00" routeLength="1239.04" waitingTime="97.00" waitingCount="3" stopTime="0.00" timeLoss="121.05" rerouteNo="0" devices="tripinfo_11" vType="DEFAULT_VEHTYPE" speedFactor="1.04" vaporized=""/>
    <tripinfo id="25" depart="53.00" departLane="-661251539_0" departPos="5.10" departSpeed="0.00" departDelay="0.06" arrival="227.00" arrivalLane="153964138#0_1" arrivalPos="337.99" arrivalSpeed="16.94" duration="174.00" routeLength="1239.04" waitingTime="71.00" waitingCount="2" stopTime="0.00" timeLoss="94.10" rerouteNo="0" devices="tripinfo_25" vType="DEFAULT_VEHTYPE" speedFactor="1.07" vaporized=""/>
    <tripinfo id="42" depart="89.00" departLane="-661251539_0" departPos="5.10" departSpeed="0.00" departDelay="0.06" arrival="231.00" arrivalLane="153964138#0_1" arrivalPos="337.99" arrivalSpeed="15.96" duration="142.00" routeLength="1239.04" waitingTime="31.00" waitingCount="2" stopTime="0.00" timeLoss="53.99" rerouteNo="0" devices="tripinfo_42" vType="DEFAULT_VEHTYPE" speedFactor="0.97" vaporized=""/>
    <tripinfo id="69" depart="147.00" departLane="666135205#0_0" departPos="5.10" departSpeed="0.00" departDelay="0.88" arrival="233.00" arrivalLane="153964138#0_0" arrivalPos="337.99" arrivalSpeed="16.06" duration="86.00" routeLength="924.87" waitingTime="6.00" waitingCount="1" stopTime="0.00" timeLoss="22.10" rerouteNo="0" devices="tripinfo_69" vType="DEFAULT_VEHTYPE" speedFactor="1.00" vaporized=""/>
    <tripinfo id="86" depart="183.00" departLane="256961141#0_0" departPos="5.10" departSpeed="0.00" departDelay="0.88" arrival="247.00" arrivalLane="39907424_0" arrivalPos="316.44" arrivalSpeed="14.54" duration="64.00" routeLength="873.95" waitingTime="0.00" waitingCount="0" stopTime="0.00" timeLoss="9.09" rerouteNo="0" devices="tripinfo_86" vType="DEFAULT_VEHTYPE" speedFactor="1.10" vaporized=""/>
    <tripinfo id="52" depart="111.00" departLane="-231177697#2_0" departPos="5.10" departSpeed="0.00" departDelay="0.88" arrival="266.00" arrivalLane="226276377#0_0" arrivalPos="135.52" arrivalSpeed="14.83" duration="155.00" routeLength="1114.55" waitingTime="65.00" waitingCount="2" stopTime="0.00" timeLoss="88.42" rerouteNo="0" devices="tripinfo_52" vType="DEFAULT_VEHTYPE" speedFactor="1.14" vaporized=""/>
    <tripinfo id="78" depart="166.00" departLane="-661251539_0" departPos="5.10" departSpeed="0.00" departDelay="0.82" arrival="271.00" arrivalLane="226276377#0_0" arrivalPos="135.52" arrivalSpeed="11.03" duration="105.00" routeLength="783.10" waitingTime="22.00" waitingCount="2" stopTime="0.00" timeLoss="41.40" rerouteNo="0" devices="tripinfo_78" vType="DEFAULT_VEHTYPE" speedFactor="0.86" vaporized=""/>
    <tripinfo id="91" depart="193.00" departLane="E8_0" departPos="5.10" departSpeed="0.00" departDelay="0.29" arrival="271.00" arrivalLane="-256961141#1_0" arrivalPos="204.72" arrivalSpeed="13.62" duration="78.00" routeLength="832.89" waitingTime="8.00" waitingCount="1" stopTime="0.00" timeLoss="19.44" rerouteNo="0" devices="tripinfo_91" vType="DEFAULT_VEHTYPE" speedFactor="1.04" vaporized=""/>
    <tripinfo id="54" depart="115.00" departLane="256961141#0_0" departPos="5.10" departSpeed="0.00" departDelay="0.65" arrival="276.00" arrivalLane="450554042#0_0" arrivalPos="622.66" arrivalSpeed="14.20" duration="161.00" routeLength="853.74" waitingTime="91.00" waitingCount="1" stopTime="0.00" timeLoss="101.09" rerouteNo="0" devices="tripinfo_54" vType="DEFAULT_VEHTYPE" speedFactor="0.92" vaporized=""/>
    <tripinfo id="117" depart="248.00" departLane="-231177697#2_0" departPos="5.10" departSpeed="0.00" departDelay="0.24" arrival="287.00" arrivalLane="153964138#0_0" arrivalPos="337.99" arrivalSpeed="12.97" duration="39.00" routeLength="417.38" waitingTime="0.00" waitingCount="0" stopTime="0.00" timeLoss="6.27" rerouteNo="0" devices="tripinfo_117" vType="DEFAULT_VEHTYPE" speedFactor="0.83" vaporized=""/>
    <tripinfo id="26" depart="56.00" departLane="-231177697#2_0" departPos="5.10" departSpeed="0.00" departDelay="0.94" arrival="300.00" arrivalLane="450554042#0_0" arrivalPos="622.66" arrivalSpeed="14.13" duration="244.00" routeLength="1613.58" waitingTime="106.00" waitingCount="4" stopTime="0.00" timeLoss="131.08" rerouteNo="0" devices="tripinfo_26" vType="DEFAULT_VEHTYPE" speedFactor="0.91" vaporized=""/>
    <tripinfo id="99" depart="210.00" departLane="E8_0" departPos="5.10" departSpeed="0.00" departDelay="0.35" arrival="327.00" arrivalLane="39907424_0" arrivalPos="316.44" arrivalSpeed="11.93" duration="117.00" routeLength="1303.68" waitingTime="1.00" waitingCount="1" stopTime="0.00" timeLoss="15.35" rerouteNo="0" devices="tripinfo_99" vType="DEFAULT_VEHTYPE" speedFactor="0.89" vaporized=""/>
    <tripinfo id="121" depart="257.00" departLane="256961141#0_0" departPos="5.10" departSpeed="0.00" departDelay="0.76" arrival="330.00" arrivalLane="450554042#0_0" arrivalPos="622.66" arrivalSpeed="13.36" duration="73.00" routeLength="853.74" waitingTime="0.00" waitingCount="0" stopTime="0.00" timeLoss="6.57" rerouteNo="0" devices="tripinfo_121" vType="DEFAULT_VEHTYPE" speedFactor="0.82" vaporized=""/>
    <tripinfo id="115" depart="244.00" departLane="-218680176#1_0" departPos="5.10" departSpeed="0.00" departDelay="0.47" arrival="331.00" arrivalLane="153964138#0_2" arrivalPos="337.99" arrivalSpeed="14.48" duration="87.00" routeLength="462.27" waitingTime="45.00" waitingCount="1" stopTime="0.00" timeLoss="54.71" rerouteNo="0" devices="tripinfo_115" vType="DEFAULT_VEHTYPE" speedFactor="0.94" vaporized=""/>
    <tripinfo id="128" depart="272.00" departLane="-218680176#1_0" departPos="5.10" departSpeed="0.00" departDelay="0.94" arrival="331.00" arrivalLane="153964138#0_1" arrivalPos="337.99" arrivalSpeed="18.11" duration="59.00" routeLength="462.27" waitingTime="19.00" waitingCount="1" stopTime="0.00" timeLoss="32.70" rerouteNo="0" devices="tripinfo_128" vType="DEFAULT_VEHTYPE" speedFactor="1.14" vaporized=""/>
    <tripinfo id="120" depart="255.00" departLane="-661251539_0" departPos="5.10" departSpeed="0.00" departDelay="0.88" arrival="345.00" arrivalLane="226276377#0_0" arrivalPos="135.52" arrivalSpeed="12.63" duration="90.00" routeLength="783.10" waitingTime="18.00" waitingCount="1" stopTime="0.00" timeLoss="30.76" rerouteNo="0" devices="tripinfo_120" vType="DEFAULT_VEHTYPE" speedFactor="0.92" vaporized=""/>
    <tripinfo id="119" depart="252.00" departLane="65746828#0_0" departPos="5.10" departSpeed="0.00" departDelay="0.00" arrival="347.00" arrivalLane="226276377#0_0" arrivalPos="135.52" arrivalSpeed="12.34" duration="95.00" routeLength="841.69" waitingTime="20.00" waitingCount="2" stopTime="0.00" timeLoss="37.17" rerouteNo="0" devices="tripinfo_119" vType="DEFAULT_VEHTYPE" speedFactor="0.97" vaporized=""/>
    <tripinfo id="114" depart="242.00" departLane="-226276377#1_0" departPos="5.10" departSpeed="0.00" departDelay="0.59" arrival="348.00" arrivalLane="450554042#0_0" arrivalPos="622.66" arrivalSpeed="15.69" duration="106.00" routeLength="763.53" waitingTime="45.00" waitingCount="1" stopTime="0.00" timeLoss="55.74" rerouteNo="0" devices="tripinfo_114" vType="DEFAULT_VEHTYPE" speedFactor="0.97" vaporized=""/>
    <tripinfo id="141" depart="299.00" departLane="65746828#0_0" departPos="5.10" departSpeed="0.00" departDelay="0.41" arrival="356.00" arrivalLane="210831345#1_0" arrivalPos="264.29" arrivalSpeed="13.42" duration="57.00" routeLength="446.75" waitingTime="13.00" waitingCount="1" stopTime="0.00" timeLoss="23.32" rerouteNo="0" devices="tripinfo_141" vType="DEFAULT_VEHTYPE" speedFactor="0.97" vaporized=""/>
    <tripinfo id="146" depart="310.00" departLane="65746828#0_0" departPos="5.10" departSpeed="0.00" departDelay="0.82" arrival="359.00" arrivalLane="210831345#1_0" arrivalPos="264.29" arrivalSpeed="12.21" duration="49.00" routeLength="446.75" waitingTime="3.00" waitingCount="1" stopTime="0.00" timeLoss="14.51" rerouteNo="0" devices="tripinfo_146" vType="DEFAULT_VEHTYPE" speedFactor="0.94" vaporized=""/>
    <tripinfo id="113" depart="240.00" departLane="256961141#0_0" departPos="5.10" departSpeed="0.00" departDelay="0.71" arrival="364.00" arrivalLane="39907424_0" arrivalPos="316.44" arrivalSpeed="13.41" duration="124.00" routeLength="873.95" waitingTime="46.00" waitingCount="1" stopTime="0.00" timeLoss="62.70" rerouteNo="0" devices="tripinfo_113" vType="DEFAULT_VEHTYPE" speedFactor="0.99" vaporized=""/>
    <tripinfo id="132" depart="280.00" departLane="978867529_0" departPos="5.10" departSpeed="0.00" departDelay="0.47" arrival="364.00" arrivalLane="231177697#0_1" arrivalPos="74.44" arrivalSpeed="13.11" duration="84.00" routeLength="437.06" waitingTime="45.00" waitingCount="1" stopTime="0.00" timeLoss="55.11" rerouteNo="0" devices="tripinfo_132" vType="DEFAULT_VEHTYPE" speedFactor="1.01" vaporized=""/>
    <tripinfo id="51" depart="108.00" departLane="666135205#0_0" departPos="5.10" departSpeed="0.00" departDelay="0.00" arrival="366.00" arrivalLane="218680176#0_1" arrivalPos="98.94" arrivalSpeed="11.97" duration="258.00" routeLength="693.09" waitingTime="188.00" waitingCount="2" stopTime="0.00" timeLoss="201.82" rerouteNo="0" devices="tripinfo_51" vType="DEFAULT_VEHTYPE" speedFactor="0.92" vaporized=""/>
    <tripinfo id="5" depart="11.00" departLane="-226276377#1_0" departPos="5.10" departSpeed="0.00" departDelay="0.41" arrival="368.00" arrivalLane="218680176#0_1" arrivalPos="98.94" arrivalSpeed="11.60" duration="357.00" routeLength="1158.55" waitingTime="247.00" waitingCount="2" stopTime="0.00" timeLoss="267.51" rerouteNo="0" devices="tripinfo_5" vType="DEFAULT_VEHTYPE" speedFactor="0.90" vaporized=""/>
    <tripinfo id="17" depart="36.00" departLane="-661251539_0" departPos="5.10" departSpeed="0.00" departDelay="0.00" arrival="370.00" arrivalLane="218680176#0_1" arrivalPos="98.94" arrivalSpeed="13.76" duration="334.00" routeLength="1001.21" waitingTime="239.00" waitingCount="2" stopTime="0.00" timeLoss="264.95" rerouteNo="0" devices="tripinfo_17" vType="DEFAULT_VEHTYPE" speedFactor="1.07" vaporized=""/>
    <tripinfo id="60" depart="128.00" departLane="666135205#0_0" departPos="5.10" departSpeed="0.00" departDelay="0.94" arrival="371.00" arrivalLane="218680176#0_1" arrivalPos="98.94" arrivalSpeed="14.11" duration="243.00" routeLength="693.09" waitingTime="178.00" waitingCount="2" stopTime="0.00" timeLoss="196.61" rerouteNo="0" devices="tripinfo_60" vType="DEFAULT_VEHTYPE" speedFactor="1.10" vaporized=""/>
    <tripinfo id="104" depart="222.00" departLane="-661251539_0" departPos="5.10" departSpeed="0.00" departDelay="1.76" arrival="372.00" arrivalLane="450554042#0_0" arrivalPos="622.66" arrivalSpeed="15.85" duration="150.00" routeLength="1282.13" waitingTime="50.00" waitingCount="1" stopTime="0.00" timeLoss="65.56" rerouteNo="0" devices="tripinfo_104" vType="DEFAULT_VEHTYPE" speedFactor="0.97" vaporized=""/>
    <tripinfo id="147" depart="312.00" departLane="666135205#0_0" departPos="5.10" departSpeed="0.00" departDelay="0.71" arrival="373.00" arrivalLane="218680176#0_1" arrivalPos="98.94" arrivalSpeed="13.87" duration="61.00" routeLength="693.09" waitingTime="0.00" waitingCount="0" stopTime="0.00" timeLoss="11.96" rerouteNo="0" devices="tripinfo_147" vType="DEFAULT_VEHTYPE" speedFactor="1.05" vaporized=""/>
    <tripinfo id="133" depart="282.00" departLane="65746828#0_0" departPos="5.10" departSpeed="0.00" departDelay="0.35" arrival="376.00" arrivalLane="450554042#0_0" arrivalPos="622.66" arrivalSpeed="15.41" duration="94.00" routeLength="1340.72" waitingTime="0.00" waitingCount="0" stopTime="0.00" timeLoss="8.52" rerouteNo="0" devices="tripinfo_133" vType="DEFAULT_VEHTYPE" speedFactor="0.97" vaporized=""/>
    <tripinfo id="145" depart="308.00" departLane="-218680176#1_0" departPos="5.10" departSpeed="0.00" departDelay="0.94" arrival="384.00" arrivalLane="231177697#0_0" arrivalPos="74.44" arrivalSpeed="13.85" duration="76.00" routeLength="205.97" waitingTime="51.00" waitingCount="1" stopTime="0.00" timeLoss="61.31" rerouteNo="0" devices="tripinfo_145" vType="DEFAULT_VEHTYPE" speedFactor="1.05" vaporized=""/>
    <tripinfo id="162" depart="344.00" departLane="-218680176#1_0" departPos="5.10" departSpeed="0.00" departDelay="0.94" arrival="388.00" arrivalLane="231177697#0_0" arrivalPos="74.44" arrivalSpeed="13.89" duration="44.00" routeLength="205.97" waitingTime="18.00" waitingCount="1" stopTime="0.00" timeLoss="28.71" rerouteNo="0" devices="tripinfo_162" vType="DEFAULT_VEHTYPE" speedFactor="1.01" vaporized=""/>
    <tripinfo id="75" depart="159.00" departLane="E8_0" departPos="5.10" departSpeed="0.00" departDelay="0.18" arrival="394.00" arrivalLane="226276377#0_1" arrivalPos="135.52" arrivalSpeed="12.19" duration="235.00" routeLength="784.51" waitingTime="163.00" waitingCount="1" stopTime="0.00" timeLoss="175.42" rerouteNo="0" devices="tripinfo_75" vType="DEFAULT_VEHTYPE" speedFactor="0.96" vaporized=""/>
    <tripinfo id="85" depart="180.00" departLane="E8_0" departPos="5.10" departSpeed="0.00" departDelay="0.00" arrival="396.00" arrivalLane="226276377#0_1" arrivalPos="135.52" arrivalSpeed="14.66" duration="216.00" routeLength="784.51" waitingTime="149.00" waitingCount="1" stopTime="0.00" timeLoss="162.13" rerouteNo="0" devices="tripinfo_85" vType="DEFAULT_VEHTYPE" speedFactor="1.07" vaporized=""/>
    <tripinfo id="110" depart="233.00" departLane="E8_0" departPos="5.10" departSpeed="0.00" departDelay="0.06" arrival="399.00" arrivalLane="226276377#0_1" arrivalPos="135.52" arrivalSpeed="11.53" duration="166.00" routeLength="784.51" waitingTime="92.00" waitingCount="1" stopTime="0.00" timeLoss="103.20" rerouteNo="0" devices="tripinfo_110" vType="DEFAULT_VEHTYPE" speedFactor="0.92" vaporized=""/>
    <tripinfo id="33" depart="70.00" departLane="-231177697#2_0" departPos="5.10" departSpeed="0.00" departDelay="0.12" arrival="400.00" arrivalLane="-256961141#1_1" arrivalPos="204.72" arrivalSpeed="11.79" duration="330.00" routeLength="1204.36" waitingTime="215.00" waitingCount="3" stopTime="0.00" timeLoss="239.27" rerouteNo="0" devices="tripinfo_33" vType="DEFAULT_VEHTYPE" speedFactor="0.90" vaporized=""/>
    <tripinfo id="136" depart="288.00" departLane="65746828#0_0" departPos="5.10" departSpeed="0.00" departDelay="0.00" arrival="406.00" arrivalLane="450554042#0_0" arrivalPos="622.66" arrivalSpeed="16.01" duration="118.00" routeLength="1340.72" waitingTime="24.00" waitingCount="1" stopTime="0.00" timeLoss="35.45" rerouteNo="0" devices="tripinfo_136" vType="DEFAULT_VEHTYPE" speedFactor="1.02" vaporized=""/>
    <tripinfo id="13" depart="28.00" departLane="-218680176#1_0" departPos="5.10" departSpeed="0.00" departDelay="0.47" arrival="407.00" arrivalLane="-256961141#1_0" arrivalPos="204.72" arrivalSpeed="9.89" duration="379.00" routeLength="1207.38" waitingTime="250.00" waitingCount="3" stopTime="0.00" timeLoss="270.62" rerouteNo="0" devices="tripinfo_13" vType="DEFAULT_VEHTYPE" speedFactor="0.76" vaporized=""/>
    <tripinfo id="103" depart="219.00" departLane="-661251539_0" departPos="5.10" departSpeed="0.00" departDelay="0.88" arrival="407.00" arrivalLane="-256961141#1_1" arrivalPos="204.72" arrivalSpeed="11.51" duration="188.00" routeLength="872.91" waitingTime="103.00" waitingCount="1" stopTime="0.00" timeLoss="119.91" rerouteNo="0" devices="tripinfo_103" vType="DEFAULT_VEHTYPE" speedFactor="0.89" vaporized=""/>
    <tripinfo id="134" depart="285.00" departLane="65746828#0_0" departPos="5.10" departSpeed="0.00" departDelay="1.24" arrival="409.00" arrivalLane="-256961141#1_1" arrivalPos="204.72" arrivalSpeed="13.52" duration="124.00" routeLength="931.50" waitingTime="41.00" waitingCount="1" stopTime="0.00" timeLoss="59.89" rerouteNo="0" devices="tripinfo_134" vType="DEFAULT_VEHTYPE" speedFactor="0.98" vaporized=""/>
    <tripinfo id="148" depart="314.00" departLane="-661251539_0" departPos="5.10" departSpeed="0.00" departDelay="0.59" arrival="411.00" arrivalLane="-256961141#1_1" arrivalPos="204.72" arrivalSpeed="12.76" duration="97.00" routeLength="872.91" waitingTime="13.00" waitingCount="1" stopTime="0.00" timeLoss="34.80" rerouteNo="0" devices="tripinfo_148" vType="DEFAULT_VEHTYPE" speedFactor="0.99" vaporized=""/>