<?xml version="1.0" encoding="UTF-8"?>

<!-- generated on 2024-09-03 02:46:20 by Eclipse SUMO sumo Version 1.20.0
<configuration xmlns:xsi="http://www.w3.org/2001/XMLSchema-instance" xsi:noNamespaceSchemaLocation="http://sumo.dlr.de/xsd/sumoConfiguration.xsd">

    <input>
        <net-file value="c:\self\School\Master\Disertation\code\RESCO\resco_benchmark\environments/unirii/osm.net.xml.gz"/>
        <route-files value="c:\self\School\Master\Disertation\code\RESCO\resco_benchmark\environments/unirii/osm.passenger.trips.xml"/>
        <additional-files value="c:\self\School\Master\Disertation\code\RESCO\resco_benchmark\environments/unirii/osm.poly.xml.gz"/>
    </input>

    <output>
        <tripinfo-output value="C:\self\School\Master\Disertation\code\RESCO\results\IA2C-tr0-unirii-0-drq_norm-wait_norm\tripinfo_54.xml"/>
        <tripinfo-output.write-unfinished value="true"/>
    </output>

    <processing>
        <ignore-route-errors value="true"/>
        <time-to-teleport value="-1"/>
    </processing>

    <routing>
        <device.rerouting.adaptation-steps value="18"/>
        <device.rerouting.adaptation-interval value="10"/>
    </routing>

    <report>
        <verbose value="true"/>
        <no-warnings value="True"/>
        <duration-log.statistics value="true"/>
        <no-step-log value="True"/>
    </report>

    <traci_server>
        <remote-port value="52367"/>
    </traci_server>

    <random_number>
        <random value="true"/>
    </random_number>

    <gui_only>
        <gui-settings-file value="c:\self\School\Master\Disertation\code\RESCO\resco_benchmark\environments/unirii/osm.view.xml"/>
    </gui_only>

</configuration>
-->

<tripinfos xmlns:xsi="http://www.w3.org/2001/XMLSchema-instance" xsi:noNamespaceSchemaLocation="http://sumo.dlr.de/xsd/tripinfo_file.xsd">
    <tripinfo id="1" depart="3.00" departLane="-231177697#2_0" departPos="5.10" departSpeed="0.00" departDelay="0.88" arrival="62.00" arrivalLane="210831345#1_1" arrivalPos="264.29" arrivalSpeed="13.68" duration="59.00" routeLength="696.92" waitingTime="0.00" waitingCount="0" stopTime="0.00" timeLoss="7.02" rerouteNo="0" devices="tripinfo_1" vType="DEFAULT_VEHTYPE" speedFactor="0.99" vaporized=""/>
    <tripinfo id="6" depart="13.00" departLane="-218680176#1_0" departPos="5.10" departSpeed="0.00" departDelay="0.29" arrival="79.00" arrivalLane="153964138#0_2" arrivalPos="337.99" arrivalSpeed="16.11" duration="66.00" routeLength="462.27" waitingTime="26.00" waitingCount="1" stopTime="0.00" timeLoss="36.70" rerouteNo="0" devices="tripinfo_6" vType="DEFAULT_VEHTYPE" speedFactor="1.02" vaporized=""/>
    <tripinfo id="10" depart="23.00" departLane="978867529_0" departPos="5.10" departSpeed="0.00" departDelay="1.82" arrival="88.00" arrivalLane="231177697#0_1" arrivalPos="74.44" arrivalSpeed="13.47" duration="65.00" routeLength="437.06" waitingTime="26.00" waitingCount="1" stopTime="0.00" timeLoss="36.78" rerouteNo="0" devices="tripinfo_10" vType="DEFAULT_VEHTYPE" speedFactor="1.01" vaporized=""/>
    <tripinfo id="15" depart="33.00" departLane="978867529_0" departPos="5.10" departSpeed="0.00" departDelay="1.24" arrival="90.00" arrivalLane="231177697#0_1" arrivalPos="74.44" arrivalSpeed="14.99" duration="57.00" routeLength="437.06" waitingTime="20.00" waitingCount="1" stopTime="0.00" timeLoss="32.05" rerouteNo="0" devices="tripinfo_15" vType="DEFAULT_VEHTYPE" speedFactor="1.16" vaporized=""/>
    <tripinfo id="7" depart="15.00" departLane="65746828#0_0" departPos="5.10" departSpeed="0.00" departDelay="0.18" arrival="95.00" arrivalLane="218680176#0_1" arrivalPos="98.94" arrivalSpeed="11.19" duration="80.00" routeLength="602.71" waitingTime="19.00" waitingCount="1" stopTime="0.00" timeLoss="30.49" rerouteNo="0" devices="tripinfo_7" vType="DEFAULT_VEHTYPE" speedFactor="0.90" vaporized=""/>
    <tripinfo id="16" depart="34.00" departLane="256961141#0_0" departPos="5.10" departSpeed="0.00" departDelay="0.12" arrival="95.00" arrivalLane="450554042#0_0" arrivalPos="622.66" arrivalSpeed="16.43" duration="61.00" routeLength="853.74" waitingTime="0.00" waitingCount="0" stopTime="0.00" timeLoss="7.16" rerouteNo="0" devices="tripinfo_16" vType="DEFAULT_VEHTYPE" speedFactor="1.02" vaporized=""/>
    <tripinfo id="3" depart="7.00" departLane="E8_0" departPos="5.10" departSpeed="0.00" departDelay="0.65" arrival="98.00" arrivalLane="-256961141#1_0" arrivalPos="204.72" arrivalSpeed="13.19" duration="91.00" routeLength="832.89" waitingTime="14.00" waitingCount="1" stopTime="0.00" timeLoss="26.91" rerouteNo="0" devices="tripinfo_3" vType="DEFAULT_VEHTYPE" speedFactor="0.95" vaporized=""/>
    <tripinfo id="21" depart="45.00" departLane="-231177697#2_0" departPos="5.10" departSpeed="0.00" departDelay="0.53" arrival="100.00" arrivalLane="210831345#1_1" arrivalPos="264.29" arrivalSpeed="15.86" duration="55.00" routeLength="696.92" waitingTime="0.00" waitingCount="0" stopTime="0.00" timeLoss="10.60" rerouteNo="0" devices="tripinfo_21" vType="DEFAULT_VEHTYPE" speedFactor="1.15" vaporized=""/>
    <tripinfo id="32" depart="68.00" departLane="978867529_0" departPos="5.10" departSpeed="0.00" departDelay="0.24" arrival="102.00" arrivalLane="231177697#0_1" arrivalPos="74.44" arrivalSpeed="12.80" duration="34.00" routeLength="437.06" waitingTime="0.00" waitingCount="0" stopTime="0.00" timeLoss="5.30" rerouteNo="0" devices="tripinfo_32" vType="DEFAULT_VEHTYPE" speedFactor="1.00" vaporized=""/>
    <tripinfo id="40" depart="85.00" departLane="65746828#0_0" departPos="5.10" departSpeed="0.00" departDelay="0.29" arrival="123.00" arrivalLane="210831345#1_0" arrivalPos="264.29" arrivalSpeed="15.11" duration="38.00" routeLength="446.75" waitingTime="0.00" waitingCount="0" stopTime="0.00" timeLoss="8.85" rerouteNo="0" devices="tripinfo_40" vType="DEFAULT_VEHTYPE" speedFactor="1.11" vaporized=""/>
    <tripinfo id="2" depart="5.00" departLane="666135205#0_0" departPos="5.10" departSpeed="0.00" departDelay="0.76" arrival="137.00" arrivalLane="231177697#0_0" arrivalPos="74.44" arrivalSpeed="13.24" duration="132.00" routeLength="649.17" waitingTime="66.00" waitingCount="2" stopTime="0.00" timeLoss="83.15" rerouteNo="0" devices="tripinfo_2" vType="DEFAULT_VEHTYPE" speedFactor="0.99" vaporized=""/>
    <tripinfo id="35" depart="75.00" departLane="-226276377#1_0" departPos="5.10" departSpeed="0.00" departDelay="0.88" arrival="146.00" arrivalLane="450554042#0_0" arrivalPos="622.66" arrivalSpeed="16.52" duration="71.00" routeLength="763.53" waitingTime="12.00" waitingCount="1" stopTime="0.00" timeLoss="22.37" rerouteNo="0" devices="tripinfo_35" vType="DEFAULT_VEHTYPE" speedFactor="1.00" vaporized=""/>
    <tripinfo id="27" depart="58.00" departLane="65746828#0_0" departPos="5.10" departSpeed="0.00" departDelay="0.82" arrival="154.00" arrivalLane="226276377#0_0" arrivalPos="135.52" arrivalSpeed="12.40" duration="96.00" routeLength="841.69" waitingTime="23.00" waitingCount="1" stopTime="0.00" timeLoss="34.76" rerouteNo="0" devices="tripinfo_27" vType="DEFAULT_VEHTYPE" speedFactor="0.91" vaporized=""/>
    <tripinfo id="17" depart="36.00" departLane="-661251539_0" departPos="5.10" departSpeed="0.00" departDelay="0.00" arrival="168.00" arrivalLane="218680176#0_1" arrivalPos="98.94" arrivalSpeed="12.28" duration="132.00" routeLength="1001.21" waitingTime="40.00" waitingCount="1" stopTime="0.00" timeLoss="52.55" rerouteNo="0" devices="tripinfo_17" vType="DEFAULT_VEHTYPE" speedFactor="0.93" vaporized=""/>
    <tripinfo id="5" depart="11.00" departLane="-226276377#1_0" departPos="5.10" departSpeed="0.00" departDelay="0.41" arrival="169.00" arrivalLane="218680176#0_1" arrivalPos="98.94" arrivalSpeed="13.40" duration="158.00" routeLength="1158.55" waitingTime="53.00" waitingCount="2" stopTime="0.00" timeLoss="75.49" rerouteNo="0" devices="tripinfo_5" vType="DEFAULT_VEHTYPE" speedFactor="0.98" vaporized=""/>
    <tripinfo id="12" depart="26.00" departLane="E8_0" departPos="5.10" departSpeed="0.00" departDelay="0.59" arrival="169.00" arrivalLane="210831347#0_1" arrivalPos="149.88" arrivalSpeed="13.46" duration="143.00" routeLength="1367.17" waitingTime="31.00" waitingCount="1" stopTime="0.00" timeLoss="50.80" rerouteNo="0" devices="tripinfo_12" vType="DEFAULT_VEHTYPE" speedFactor="1.04" vaporized=""/>
    <tripinfo id="22" depart="47.00" departLane="-218680176#1_0" departPos="5.10" departSpeed="0.00" departDelay="0.41" arrival="178.00" arrivalLane="210831345#1_1" arrivalPos="264.29" arrivalSpeed="13.21" duration="131.00" routeLength="699.94" waitingTime="63.00" waitingCount="2" stopTime="0.00" timeLoss="80.16" rerouteNo="0" devices="tripinfo_22" vType="DEFAULT_VEHTYPE" speedFactor="1.02" vaporized=""/>
    <tripinfo id="34" depart="72.00" departLane="-231177697#2_0" departPos="5.10" departSpeed="0.00" departDelay="0.00" arrival="185.00" arrivalLane="210831345#1_0" arrivalPos="264.29" arrivalSpeed="11.06" duration="113.00" routeLength="696.92" waitingTime="34.00" waitingCount="2" stopTime="0.00" timeLoss="51.19" rerouteNo="0" devices="tripinfo_34" vType="DEFAULT_VEHTYPE" speedFactor="0.82" vaporized=""/>
    <tripinfo id="36" depart="77.00" departLane="978867529_0" departPos="5.10" departSpeed="0.00" departDelay="0.76" arrival="187.00" arrivalLane="210831345#1_0" arrivalPos="264.29" arrivalSpeed="13.80" duration="110.00" routeLength="951.92" waitingTime="27.00" waitingCount="1" stopTime="0.00" timeLoss="49.33" rerouteNo="0" devices="tripinfo_36" vType="DEFAULT_VEHTYPE" speedFactor="1.08" vaporized=""/>
    <tripinfo id="39" depart="83.00" departLane="-231177697#2_0" departPos="5.10" departSpeed="0.00" departDelay="0.41" arrival="188.00" arrivalLane="210831345#1_0" arrivalPos="264.29" arrivalSpeed="11.02" duration="105.00" routeLength="696.92" waitingTime="24.00" waitingCount="2" stopTime="0.00" timeLoss="41.87" rerouteNo="0" devices="tripinfo_39" vType="DEFAULT_VEHTYPE" speedFactor="0.81" vaporized=""/>
    <tripinfo id="55" depart="117.00" departLane="978867529_0" departPos="5.10" departSpeed="0.00" departDelay="0.53" arrival="189.00" arrivalLane="210831345#1_1" arrivalPos="264.29" arrivalSpeed="13.22" duration="72.00" routeLength="951.92" waitingTime="0.00" waitingCount="0" stopTime="0.00" timeLoss="7.74" rerouteNo="0" devices="tripinfo_55" vType="DEFAULT_VEHTYPE" speedFactor="1.02" vaporized=""/>
    <tripinfo id="41" depart="88.00" departLane="65746828#0_0" departPos="5.10" departSpeed="0.00" departDelay="1.18" arrival="190.00" arrivalLane="450554042#0_0" arrivalPos="622.66" arrivalSpeed="14.12" duration="102.00" routeLength="1340.72" waitingTime="0.00" waitingCount="0" stopTime="0.00" timeLoss="10.03" rerouteNo="0" devices="tripinfo_41" vType="DEFAULT_VEHTYPE" speedFactor="0.91" vaporized=""/>
    <tripinfo id="46" depart="98.00" departLane="978867529_0" departPos="5.10" departSpeed="0.00" departDelay="0.59" arrival="192.00" arrivalLane="210831347#0_0" arrivalPos="149.88" arrivalSpeed="12.69" duration="94.00" routeLength="812.56" waitingTime="23.00" waitingCount="2" stopTime="0.00" timeLoss="38.79" rerouteNo="0" devices="tripinfo_46" vType="DEFAULT_VEHTYPE" speedFactor="1.00" vaporized=""/>
    <tripinfo id="51" depart="108.00" departLane="666135205#0_0" departPos="5.10" departSpeed="0.00" departDelay="0.00" arrival="215.00" arrivalLane="218680176#0_1" arrivalPos="98.94" arrivalSpeed="13.53" duration="107.00" routeLength="693.09" waitingTime="46.00" waitingCount="2" stopTime="0.00" timeLoss="58.51" rerouteNo="0" devices="tripinfo_51" vType="DEFAULT_VEHTYPE" speedFactor="1.07" vaporized=""/>
    <tripinfo id="43" depart="92.00" departLane="E8_0" departPos="5.10" departSpeed="0.00" departDelay="0.94" arrival="216.00" arrivalLane="218680176#0_1" arrivalPos="98.94" arrivalSpeed="14.44" duration="124.00" routeLength="1637.20" waitingTime="0.00" waitingCount="0" stopTime="0.00" timeLoss="18.26" rerouteNo="0" devices="tripinfo_43" vType="DEFAULT_VEHTYPE" speedFactor="1.08" vaporized=""/>
    <tripinfo id="30" depart="64.00" departLane="E8_0" departPos="5.10" departSpeed="0.00" departDelay="0.47" arrival="218.00" arrivalLane="226276377#0_1" arrivalPos="135.52" arrivalSpeed="13.38" duration="154.00" routeLength="784.51" waitingTime="87.00" waitingCount="1" stopTime="0.00" timeLoss="98.49" rerouteNo="0" devices="tripinfo_30" vType="DEFAULT_VEHTYPE" speedFactor="1.04" vaporized=""/>
    <tripinfo id="79" depart="168.00" departLane="-231177697#2_0" departPos="5.10" departSpeed="0.00" departDelay="0.71" arrival="223.00" arrivalLane="153964138#0_0" arrivalPos="337.99" arrivalSpeed="15.93" duration="55.00" routeLength="417.38" waitingTime="20.00" waitingCount="1" stopTime="0.00" timeLoss="27.95" rerouteNo="0" devices="tripinfo_79" vType="DEFAULT_VEHTYPE" speedFactor="0.99" vaporized=""/>
    <tripinfo id="0" depart="0.00" departLane="65746828#0_0" departPos="5.10" departSpeed="0.00" departDelay="0.00" arrival="224.00" arrivalLane="-256961141#1_1" arrivalPos="204.72" arrivalSpeed="12.77" duration="224.00" routeLength="931.50" waitingTime="144.00" waitingCount="1" stopTime="0.00" timeLoss="158.34" rerouteNo="0" devices="tripinfo_0" vType="DEFAULT_VEHTYPE" speedFactor="0.95" vaporized=""/>
    <tripinfo id="4" depart="9.00" departLane="-661251539_0" departPos="5.10" departSpeed="0.00" departDelay="0.53" arrival="226.00" arrivalLane="-256961141#1_1" arrivalPos="204.72" arrivalSpeed="14.84" duration="217.00" routeLength="872.91" waitingTime="142.00" waitingCount="1" stopTime="0.00" timeLoss="160.09" rerouteNo="0" devices="tripinfo_4" vType="DEFAULT_VEHTYPE" speedFactor="1.09" vaporized=""/>
    <tripinfo id="38" depart="81.00" departLane="E8_0" departPos="5.10" departSpeed="0.00" departDelay="0.53" arrival="227.00" arrivalLane="218680176#0_1" arrivalPos="98.94" arrivalSpeed="11.40" duration="146.00" routeLength="1637.20" waitingTime="0.00" waitingCount="0" stopTime="0.00" timeLoss="11.27" rerouteNo="0" devices="tripinfo_38" vType="DEFAULT_VEHTYPE" speedFactor="0.85" vaporized=""/>
    <tripinfo id="20" depart="43.00" departLane="666135205#0_0" departPos="5.10" departSpeed="0.00" departDelay="0.65" arrival="229.00" arrivalLane="-256961141#1_1" arrivalPos="204.72" arrivalSpeed="12.30" duration="186.00" routeLength="1068.72" waitingTime="91.00" waitingCount="1" stopTime="0.00" timeLoss="106.10" rerouteNo="0" devices="tripinfo_20" vType="DEFAULT_VEHTYPE" speedFactor="0.90" vaporized=""/>
    <tripinfo id="54" depart="115.00" departLane="256961141#0_0" departPos="5.10" departSpeed="0.00" departDelay="0.65" arrival="230.00" arrivalLane="450554042#0_0" arrivalPos="622.66" arrivalSpeed="13.90" duration="115.00" routeLength="853.74" waitingTime="40.00" waitingCount="1" stopTime="0.00" timeLoss="49.70" rerouteNo="0" devices="tripinfo_54" vType="DEFAULT_VEHTYPE" speedFactor="0.84" vaporized=""/>
    <tripinfo id="33" depart="70.00" departLane="-231177697#2_0" departPos="5.10" departSpeed="0.00" departDelay="0.12" arrival="231.00" arrivalLane="-256961141#1_1" arrivalPos="204.72" arrivalSpeed="14.04" duration="161.00" routeLength="1204.36" waitingTime="65.00" waitingCount="2" stopTime="0.00" timeLoss="86.30" rerouteNo="0" devices="tripinfo_33" vType="DEFAULT_VEHTYPE" speedFactor="1.09" vaporized=""/>
    <tripinfo id="13" depart="28.00" departLane="-218680176#1_0" departPos="5.10" departSpeed="0.00" departDelay="0.47" arrival="233.00" arrivalLane="-256961141#1_1" arrivalPos="204.72" arrivalSpeed="12.87" duration="205.00" routeLength="1207.38" waitingTime="93.00" waitingCount="3" stopTime="0.00" timeLoss="122.17" rerouteNo="0" devices="tripinfo_13" vType="DEFAULT_VEHTYPE" speedFactor="0.99" vaporized=""/>
    <tripinfo id="75" depart="159.00" departLane="E8_0" departPos="5.10" departSpeed="0.00" departDelay="0.18" arrival="234.00" arrivalLane="226276377#0_1" arrivalPos="135.52" arrivalSpeed="11.15" duration="75.00" routeLength="784.51" waitingTime="0.00" waitingCount="0" stopTime="0.00" timeLoss="6.45" rerouteNo="0" devices="tripinfo_75" vType="DEFAULT_VEHTYPE" speedFactor="0.84" vaporized=""/>
    <tripinfo id="9" depart="20.00" departLane="978867529_0" departPos="5.10" departSpeed="0.00" departDelay="0.94" arrival="235.00" arrivalLane="-256961141#1_1" arrivalPos="204.72" arrivalSpeed="15.05" duration="215.00" routeLength="1459.36" waitingTime="103.00" waitingCount="2" stopTime="0.00" timeLoss="129.48" rerouteNo="0" devices="tripinfo_9" vType="DEFAULT_VEHTYPE" speedFactor="1.13" vaporized=""/>
    <tripinfo id="61" depart="130.00" departLane="978867529_0" departPos="5.10" departSpeed="0.00" departDelay="0.82" arrival="240.00" arrivalLane="218680176#0_0" arrivalPos="98.94" arrivalSpeed="11.23" duration="110.00" routeLength="442.15" waitingTime="65.00" waitingCount="1" stopTime="0.00" timeLoss="77.13" rerouteNo="0" devices="tripinfo_61" vType="DEFAULT_VEHTYPE" speedFactor="0.88" vaporized=""/>
    <tripinfo id="29" depart="63.00" departLane="-226276377#1_0" departPos="5.10" departSpeed="0.00" departDelay="1.59" arrival="246.00" arrivalLane="210831347#0_1" arrivalPos="149.88" arrivalSpeed="11.63" duration="183.00" routeLength="888.52" waitingTime="100.00" waitingCount="1" stopTime="0.00" timeLoss="111.12" rerouteNo="0" devices="tripinfo_29" vType="DEFAULT_VEHTYPE" speedFactor="0.85" vaporized=""/>
    <tripinfo id="74" depart="157.00" departLane="-226276377#1_0" departPos="5.10" departSpeed="0.00" departDelay="0.29" arrival="246.00" arrivalLane="210831345#1_0" arrivalPos="264.29" arrivalSpeed="14.60" duration="89.00" routeLength="977.93" waitingTime="11.00" waitingCount="1" stopTime="0.00" timeLoss="24.92" rerouteNo="0" devices="tripinfo_74" vType="DEFAULT_VEHTYPE" speedFactor="1.06" vaporized=""/>
    <tripinfo id="53" depart="113.00" departLane="-226276377#1_0" departPos="5.10" departSpeed="0.00" departDelay="0.76" arrival="247.00" arrivalLane="210831347#0_1" arrivalPos="149.88" arrivalSpeed="12.79" duration="134.00" routeLength="888.52" waitingTime="52.00" waitingCount="1" stopTime="0.00" timeLoss="69.70" rerouteNo="0" devices="tripinfo_53" vType="DEFAULT_VEHTYPE" speedFactor="0.95" vaporized=""/>
    <tripinfo id="72" depart="153.00" departLane="-661251539_0" departPos="5.10" departSpeed="0.00" departDelay="0.53" arrival="250.00" arrivalLane="153964138#0_2" arrivalPos="337.99" arrivalSpeed="17.12" duration="97.00" routeLength="1239.04" waitingTime="3.00" waitingCount="1" stopTime="0.00" timeLoss="17.16" rerouteNo="0" devices="tripinfo_72" vType="DEFAULT_VEHTYPE" speedFactor="1.08" vaporized=""/>
    <tripinfo id="25" depart="53.00" departLane="-661251539_0" departPos="5.10" departSpeed="0.00" departDelay="0.06" arrival="253.00" arrivalLane="153964138#0_0" arrivalPos="337.99" arrivalSpeed="17.43" duration="200.00" routeLength="1239.04" waitingTime="95.00" waitingCount="3" stopTime="0.00" timeLoss="119.81" rerouteNo="0" devices="tripinfo_25" vType="DEFAULT_VEHTYPE" speedFactor="1.07" vaporized=""/>
    <tripinfo id="28" depart="60.00" departLane="-226276377#1_0" departPos="5.10" departSpeed="0.00" departDelay="0.71" arrival="254.00" arrivalLane="231177697#0_0" arrivalPos="74.44" arrivalSpeed="13.73" duration="194.00" routeLength="1114.63" waitingTime="104.00" waitingCount="1" stopTime="0.00" timeLoss="115.94" rerouteNo="0" devices="tripinfo_28" vType="DEFAULT_VEHTYPE" speedFactor="1.00" vaporized=""/>
    <tripinfo id="85" depart="180.00" departLane="E8_0" departPos="5.10" departSpeed="0.00" departDelay="0.00" arrival="255.00" arrivalLane="226276377#0_1" arrivalPos="135.52" arrivalSpeed="10.82" duration="75.00" routeLength="784.51" waitingTime="0.00" waitingCount="0" stopTime="0.00" timeLoss="6.66" rerouteNo="0" devices="tripinfo_85" vType="DEFAULT_VEHTYPE" speedFactor="0.83" vaporized=""/>
    <tripinfo id="11" depart="24.00" departLane="-661251539_0" departPos="5.10" departSpeed="0.00" departDelay="0.71" arrival="256.00" arrivalLane="153964138#0_0" arrivalPos="337.99" arrivalSpeed="13.73" duration="232.00" routeLength="1239.04" waitingTime="116.00" waitingCount="2" stopTime="0.00" timeLoss="135.37" rerouteNo="0" devices="tripinfo_11" vType="DEFAULT_VEHTYPE" speedFactor="0.89" vaporized=""/>
    <tripinfo id="42" depart="89.00" departLane="-661251539_0" departPos="5.10" departSpeed="0.00" departDelay="0.06" arrival="256.00" arrivalLane="153964138#0_1" arrivalPos="337.99" arrivalSpeed="14.77" duration="167.00" routeLength="1239.04" waitingTime="59.00" waitingCount="2" stopTime="0.00" timeLoss="77.92" rerouteNo="0" devices="tripinfo_42" vType="DEFAULT_VEHTYPE" speedFactor="0.96" vaporized=""/>
    <tripinfo id="92" depart="195.00" departLane="-661251539_0" departPos="5.10" departSpeed="0.00" departDelay="0.18" arrival="258.00" arrivalLane="210831347#0_1" arrivalPos="149.88" arrivalSpeed="13.45" duration="63.00" routeLength="731.18" waitingTime="0.00" waitingCount="0" stopTime="0.00" timeLoss="10.47" rerouteNo="0" devices="tripinfo_92" vType="DEFAULT_VEHTYPE" speedFactor="1.03" vaporized=""/>
    <tripinfo id="23" depart="50.00" departLane="-218680176#1_0" departPos="5.10" departSpeed="0.00" departDelay="1.29" arrival="259.00" arrivalLane="210831345#1_0" arrivalPos="264.29" arrivalSpeed="10.20" duration="209.00" routeLength="699.94" waitingTime="128.00" waitingCount="3" stopTime="0.00" timeLoss="144.79" rerouteNo="0" devices="tripinfo_23" vType="DEFAULT_VEHTYPE" speedFactor="0.81" vaporized=""/>
    <tripinfo id="56" depart="119.00" departLane="256961141#0_0" departPos="5.10" departSpeed="0.00" departDelay="0.41" arrival="262.00" arrivalLane="153964138#0_0" arrivalPos="337.99" arrivalSpeed="12.82" duration="143.00" routeLength="1439.25" waitingTime="9.00" waitingCount="1" stopTime="0.00" timeLoss="23.72" rerouteNo="0" devices="tripinfo_56" vType="DEFAULT_VEHTYPE" speedFactor="0.81" vaporized=""/>
    <tripinfo id="77" depart="164.00" departLane="-226276377#1_0" departPos="5.10" departSpeed="0.00" departDelay="0.94" arrival="276.00" arrivalLane="210831345#1_0" arrivalPos="264.29" arrivalSpeed="13.30" duration="112.00" routeLength="977.93" waitingTime="26.00" waitingCount="2" stopTime="0.00" timeLoss="44.07" rerouteNo="0" devices="tripinfo_77" vType="DEFAULT_VEHTYPE" speedFactor="1.00" vaporized=""/>
    <tripinfo id="95" depart="202.00" departLane="-661251539_0" departPos="5.10" departSpeed="0.00" departDelay="0.82" arrival="278.00" arrivalLane="210831345#1_0" arrivalPos="264.29" arrivalSpeed="13.97" duration="76.00" routeLength="826.64" waitingTime="6.00" waitingCount="1" stopTime="0.00" timeLoss="16.84" rerouteNo="0" devices="tripinfo_95" vType="DEFAULT_VEHTYPE" speedFactor="1.04" vaporized=""/>
    <tripinfo id="103" depart="219.00" departLane="-661251539_0" departPos="5.10" departSpeed="0.00" departDelay="0.88" arrival="278.00" arrivalLane="-256961141#1_1" arrivalPos="204.72" arrivalSpeed="15.49" duration="59.00" routeLength="872.91" waitingTime="0.00" waitingCount="0" stopTime="0.00" timeLoss="8.55" rerouteNo="0" devices="tripinfo_103" vType="DEFAULT_VEHTYPE" speedFactor="1.21" vaporized=""/>
    <tripinfo id="70" depart="149.00" departLane="256961141#0_0" departPos="5.10" departSpeed="0.00" departDelay="0.76" arrival="290.00" arrivalLane="218680176#0_1" arrivalPos="98.94" arrivalSpeed="12.82" duration="141.00" routeLength="1207.47" waitingTime="43.00" waitingCount="1" stopTime="0.00" timeLoss="56.27" rerouteNo="0" devices="tripinfo_70" vType="DEFAULT_VEHTYPE" speedFactor="0.99" vaporized=""/>
    <tripinfo id="60" depart="128.00" departLane="666135205#0_0" departPos="5.10" departSpeed="0.00" departDelay="0.94" arrival="292.00" arrivalLane="218680176#0_1" arrivalPos="98.94" arrivalSpeed="13.52" duration="164.00" routeLength="693.09" waitingTime="95.00" waitingCount="3" stopTime="0.00" timeLoss="113.71" rerouteNo="0" devices="tripinfo_60" vType="DEFAULT_VEHTYPE" speedFactor="1.02" vaporized=""/>
    <tripinfo id="76" depart="161.00" departLane="-661251539_0" departPos="5.10" departSpeed="0.00" departDelay="0.06" arrival="294.00" arrivalLane="218680176#0_1" arrivalPos="98.94" arrivalSpeed="13.24" duration="133.00" routeLength="1001.21" waitingTime="37.00" waitingCount="2" stopTime="0.00" timeLoss="56.83" rerouteNo="0" devices="tripinfo_76" vType="DEFAULT_VEHTYPE" speedFactor="0.96" vaporized=""/>
    <tripinfo id="64" depart="136.00" departLane="978867529_0" departPos="5.10" departSpeed="0.00" departDelay="0.47" arrival="295.00" arrivalLane="39907424_0" arrivalPos="316.44" arrivalSpeed="15.48" duration="159.00" routeLength="1216.15" waitingTime="65.00" waitingCount="1" stopTime="0.00" timeLoss="85.42" rerouteNo="0" devices="tripinfo_64" vType="DEFAULT_VEHTYPE" speedFactor="1.12" vaporized=""/>
    <tripinfo id="89" depart="189.00" departLane="-661251539_0" departPos="5.10" departSpeed="0.00" departDelay="0.53" arrival="297.00" arrivalLane="218680176#0_1" arrivalPos="98.94" arrivalSpeed="11.44" duration="108.00" routeLength="1001.21" waitingTime="10.00" waitingCount="1" stopTime="0.00" timeLoss="27.88" rerouteNo="0" devices="tripinfo_89" vType="DEFAULT_VEHTYPE" speedFactor="0.92" vaporized=""/>
    <tripinfo id="93" depart="197.00" departLane="978867529_0" departPos="5.10" departSpeed="0.00" departDelay="0.06" arrival="300.00" arrivalLane="210831345#1_1" arrivalPos="264.29" arrivalSpeed="16.30" duration="103.00" routeLength="951.92" waitingTime="29.00" waitingCount="2" stopTime="0.00" timeLoss="49.88" rerouteNo="0" devices="tripinfo_93" vType="DEFAULT_VEHTYPE" speedFactor="1.24" vaporized=""/>
    <tripinfo id="86" depart="183.00" departLane="256961141#0_0" departPos="5.10" departSpeed="0.00" departDelay="0.88" arrival="305.00" arrivalLane="39907424_0" arrivalPos="316.44" arrivalSpeed="12.29" duration="122.00" routeLength="873.95" waitingTime="39.00" waitingCount="2" stopTime="0.00" timeLoss="55.21" rerouteNo="0" devices="tripinfo_86" vType="DEFAULT_VEHTYPE" speedFactor="0.91" vaporized=""/>
    <tripinfo id="114" depart="242.00" departLane="-226276377#1_0" departPos="5.10" departSpeed="0.00" departDelay="0.59" arrival="319.00" arrivalLane="450554042#0_0" arrivalPos="622.66" arrivalSpeed="15.15" duration="77.00" routeLength="763.53" waitingTime="14.00" waitingCount="1" stopTime="0.00" timeLoss="24.80" rerouteNo="0" devices="tripinfo_114" vType="DEFAULT_VEHTYPE" speedFactor="0.94" vaporized=""/>
    <tripinfo id="110" depart="233.00" departLane="E8_0" departPos="5.10" departSpeed="0.00" departDelay="0.06" arrival="321.00" arrivalLane="226276377#0_1" arrivalPos="135.52" arrivalSpeed="9.54" duration="88.00" routeLength="784.51" waitingTime="3.00" waitingCount="1" stopTime="0.00" timeLoss="14.49" rerouteNo="0" devices="tripinfo_110" vType="DEFAULT_VEHTYPE" speedFactor="0.77" vaporized=""/>
    <tripinfo id="113" depart="240.00" departLane="256961141#0_0" departPos="5.10" departSpeed="0.00" departDelay="0.71" arrival="324.00" arrivalLane="39907424_0" arrivalPos="316.44" arrivalSpeed="15.60" duration="84.00" routeLength="873.95" waitingTime="15.00" waitingCount="1" stopTime="0.00" timeLoss="33.44" rerouteNo="0" devices="tripinfo_113" vType="DEFAULT_VEHTYPE" speedFactor="1.21" vaporized=""/>
    <tripinfo id="44" depart="94.00" departLane="-218680176#1_0" departPos="5.10" departSpeed="0.00" departDelay="0.82" arrival="326.00" arrivalLane="-256961141#1_1" arrivalPos="204.72" arrivalSpeed="11.10" duration="232.00" routeLength="1207.38" waitingTime="113.00" waitingCount="4" stopTime="0.00" timeLoss="139.23" rerouteNo="0" devices="tripinfo_44" vType="DEFAULT_VEHTYPE" speedFactor="0.88" vaporized=""/>
    <tripinfo id="115" depart="244.00" departLane="-218680176#1_0" departPos="5.10" departSpeed="0.00" departDelay="0.47" arrival="327.00" arrivalLane="153964138#0_2" arrivalPos="337.99" arrivalSpeed="17.72" duration="83.00" routeLength="462.27" waitingTime="45.00" waitingCount="1" stopTime="0.00" timeLoss="55.22" rerouteNo="0" devices="tripinfo_115" vType="DEFAULT_VEHTYPE" speedFactor="1.07" vaporized=""/>
    <tripinfo id="117" depart="248.00" departLane="-231177697#2_0" departPos="5.10" departSpeed="0.00" departDelay="0.24" arrival="327.00" arrivalLane="153964138#0_0" arrivalPos="337.99" arrivalSpeed="13.61" duration="79.00" routeLength="417.38" waitingTime="38.00" waitingCount="1" stopTime="0.00" timeLoss="47.56" rerouteNo="0" devices="tripinfo_117" vType="DEFAULT_VEHTYPE" speedFactor="0.87" vaporized=""/>
    <tripinfo id="82" depart="174.00" departLane="978867529_0" departPos="5.10" departSpeed="0.00" departDelay="0.35" arrival="328.00" arrivalLane="-256961141#1_1" arrivalPos="204.72" arrivalSpeed="12.40" duration="154.00" routeLength="1459.36" waitingTime="28.00" waitingCount="2" stopTime="0.00" timeLoss="46.71" rerouteNo="0" devices="tripinfo_82" vType="DEFAULT_VEHTYPE" speedFactor="0.90" vaporized=""/>
    <tripinfo id="128" depart="272.00" departLane="-218680176#1_0" departPos="5.10" departSpeed="0.00" departDelay="0.94" arrival="329.00" arrivalLane="153964138#0_2" arrivalPos="337.99" arrivalSpeed="18.17" duration="57.00" routeLength="462.27" waitingTime="19.00" waitingCount="1" stopTime="0.00" timeLoss="30.59" rerouteNo="0" devices="tripinfo_128" vType="DEFAULT_VEHTYPE" speedFactor="1.14" vaporized=""/>
    <tripinfo id="47" depart="100.00" departLane="-218680176#1_0" departPos="5.10" departSpeed="0.00" departDelay="0.47" arrival="339.00" arrivalLane="210831347#0_0" arrivalPos="149.88" arrivalSpeed="13.50" duration="239.00" routeLength="560.58" waitingTime="169.00" waitingCount="4" stopTime="0.00" timeLoss="195.92" rerouteNo="0" devices="tripinfo_47" vType="DEFAULT_VEHTYPE" speedFactor="0.98" vaporized=""/>
    <tripinfo id="50" depart="106.00" departLane="-218680176#1_0" departPos="5.10" departSpeed="0.00" departDelay="0.12" arrival="339.00" arrivalLane="231177697#0_0" arrivalPos="74.44" arrivalSpeed="14.65" duration="233.00" routeLength="205.97" waitingTime="191.00" waitingCount="5" stopTime="0.00" timeLoss="218.15" rerouteNo="0" devices="tripinfo_50" vType="DEFAULT_VEHTYPE" speedFactor="1.06" vaporized=""/>