<?xml version="1.0" encoding="UTF-8"?>

<!-- generated on 2024-09-03 02:39:07 by Eclipse SUMO sumo Version 1.20.0
<configuration xmlns:xsi="http://www.w3.org/2001/XMLSchema-instance" xsi:noNamespaceSchemaLocation="http://sumo.dlr.de/xsd/sumoConfiguration.xsd">

    <input>
        <net-file value="c:\self\School\Master\Disertation\code\RESCO\resco_benchmark\environments/unirii/osm.net.xml.gz"/>
        <route-files value="c:\self\School\Master\Disertation\code\RESCO\resco_benchmark\environments/unirii/osm.passenger.trips.xml"/>
        <additional-files value="c:\self\School\Master\Disertation\code\RESCO\resco_benchmark\environments/unirii/osm.poly.xml.gz"/>
    </input>

    <output>
        <tripinfo-output value="C:\self\School\Master\Disertation\code\RESCO\results\IA2C-tr0-unirii-0-drq_norm-wait_norm\tripinfo_23.xml"/>
        <tripinfo-output.write-unfinished value="true"/>
    </output>

    <processing>
        <ignore-route-errors value="true"/>
        <time-to-teleport value="-1"/>
    </processing>

    <routing>
        <device.rerouting.adaptation-steps value="18"/>
        <device.rerouting.adaptation-interval value="10"/>
    </routing>

    <report>
        <verbose value="true"/>
        <no-warnings value="True"/>
        <duration-log.statistics value="true"/>
        <no-step-log value="True"/>
    </report>

    <traci_server>
        <remote-port value="52039"/>
    </traci_server>

    <random_number>
        <random value="true"/>
    </random_number>

    <gui_only>
        <gui-settings-file value="c:\self\School\Master\Disertation\code\RESCO\resco_benchmark\environments/unirii/osm.view.xml"/>
    </gui_only>

</configuration>
-->

<tripinfos xmlns:xsi="http://www.w3.org/2001/XMLSchema-instance" xsi:noNamespaceSchemaLocation="http://sumo.dlr.de/xsd/tripinfo_file.xsd">
    <tripinfo id="3" depart="7.00" departLane="E8_0" departPos="5.10" departSpeed="0.00" departDelay="0.65" arrival="70.00" arrivalLane="-256961141#1_0" arrivalPos="204.72" arrivalSpeed="16.44" duration="63.00" routeLength="832.89" waitingTime="0.00" waitingCount="0" stopTime="0.00" timeLoss="12.57" rerouteNo="0" devices="tripinfo_3" vType="DEFAULT_VEHTYPE" speedFactor="1.22" vaporized=""/>
    <tripinfo id="50" depart="106.00" departLane="-218680176#1_0" departPos="5.10" departSpeed="0.00" departDelay="0.12" arrival="124.00" arrivalLane="231177697#0_0" arrivalPos="74.44" arrivalSpeed="14.20" duration="18.00" routeLength="205.97" waitingTime="0.00" waitingCount="0" stopTime="0.00" timeLoss="4.33" rerouteNo="0" devices="tripinfo_50" vType="DEFAULT_VEHTYPE" speedFactor="1.09" vaporized=""/>
    <tripinfo id="35" depart="75.00" departLane="-226276377#1_0" departPos="5.10" departSpeed="0.00" departDelay="0.88" arrival="127.00" arrivalLane="450554042#0_0" arrivalPos="622.66" arrivalSpeed="17.36" duration="52.00" routeLength="763.53" waitingTime="0.00" waitingCount="0" stopTime="0.00" timeLoss="7.68" rerouteNo="0" devices="tripinfo_35" vType="DEFAULT_VEHTYPE" speedFactor="1.11" vaporized=""/>
    <tripinfo id="2" depart="5.00" departLane="666135205#0_0" departPos="5.10" departSpeed="0.00" departDelay="0.76" arrival="137.00" arrivalLane="231177697#0_0" arrivalPos="74.44" arrivalSpeed="12.59" duration="132.00" routeLength="649.17" waitingTime="69.00" waitingCount="1" stopTime="0.00" timeLoss="80.69" rerouteNo="0" devices="tripinfo_2" vType="DEFAULT_VEHTYPE" speedFactor="0.95" vaporized=""/>
    <tripinfo id="31" depart="66.00" departLane="65746828#0_0" departPos="5.10" departSpeed="0.00" departDelay="0.35" arrival="139.00" arrivalLane="231177697#0_0" arrivalPos="74.44" arrivalSpeed="13.02" duration="73.00" routeLength="558.79" waitingTime="19.00" waitingCount="1" stopTime="0.00" timeLoss="31.27" rerouteNo="0" devices="tripinfo_31" vType="DEFAULT_VEHTYPE" speedFactor="0.99" vaporized=""/>
    <tripinfo id="16" depart="34.00" departLane="256961141#0_0" departPos="5.10" departSpeed="0.00" departDelay="0.12" arrival="141.00" arrivalLane="450554042#0_1" arrivalPos="622.66" arrivalSpeed="19.44" duration="107.00" routeLength="853.74" waitingTime="48.00" waitingCount="1" stopTime="0.00" timeLoss="61.84" rerouteNo="0" devices="tripinfo_16" vType="DEFAULT_VEHTYPE" speedFactor="1.22" vaporized=""/>
    <tripinfo id="25" depart="53.00" departLane="-661251539_0" departPos="5.10" departSpeed="0.00" departDelay="0.06" arrival="150.00" arrivalLane="153964138#0_1" arrivalPos="337.99" arrivalSpeed="18.19" duration="97.00" routeLength="1239.04" waitingTime="6.00" waitingCount="1" stopTime="0.00" timeLoss="21.30" rerouteNo="0" devices="tripinfo_25" vType="DEFAULT_VEHTYPE" speedFactor="1.13" vaporized=""/>
    <tripinfo id="11" depart="24.00" departLane="-661251539_0" departPos="5.10" departSpeed="0.00" departDelay="0.71" arrival="153.00" arrivalLane="153964138#0_1" arrivalPos="337.99" arrivalSpeed="17.16" duration="129.00" routeLength="1239.04" waitingTime="29.00" waitingCount="1" stopTime="0.00" timeLoss="46.49" rerouteNo="0" devices="tripinfo_11" vType="DEFAULT_VEHTYPE" speedFactor="1.03" vaporized=""/>
    <tripinfo id="40" depart="85.00" departLane="65746828#0_0" departPos="5.10" departSpeed="0.00" departDelay="0.29" arrival="155.00" arrivalLane="210831345#1_0" arrivalPos="264.29" arrivalSpeed="12.25" duration="70.00" routeLength="446.75" waitingTime="24.00" waitingCount="1" stopTime="0.00" timeLoss="35.26" rerouteNo="0" devices="tripinfo_40" vType="DEFAULT_VEHTYPE" speedFactor="0.94" vaporized=""/>
    <tripinfo id="47" depart="100.00" departLane="-218680176#1_0" departPos="5.10" departSpeed="0.00" departDelay="0.47" arrival="168.00" arrivalLane="210831347#0_0" arrivalPos="149.88" arrivalSpeed="12.74" duration="68.00" routeLength="560.58" waitingTime="12.00" waitingCount="1" stopTime="0.00" timeLoss="24.94" rerouteNo="0" devices="tripinfo_47" vType="DEFAULT_VEHTYPE" speedFactor="0.97" vaporized=""/>
    <tripinfo id="46" depart="98.00" departLane="978867529_0" departPos="5.10" departSpeed="0.00" departDelay="0.59" arrival="173.00" arrivalLane="210831347#0_0" arrivalPos="149.88" arrivalSpeed="12.92" duration="75.00" routeLength="812.56" waitingTime="2.00" waitingCount="1" stopTime="0.00" timeLoss="15.38" rerouteNo="0" devices="tripinfo_46" vType="DEFAULT_VEHTYPE" speedFactor="0.94" vaporized=""/>
    <tripinfo id="54" depart="115.00" departLane="256961141#0_0" departPos="5.10" departSpeed="0.00" departDelay="0.65" arrival="174.00" arrivalLane="450554042#0_0" arrivalPos="622.66" arrivalSpeed="16.21" duration="59.00" routeLength="853.74" waitingTime="0.00" waitingCount="0" stopTime="0.00" timeLoss="5.83" rerouteNo="0" devices="tripinfo_54" vType="DEFAULT_VEHTYPE" speedFactor="1.02" vaporized=""/>
    <tripinfo id="6" depart="13.00" departLane="-218680176#1_0" departPos="5.10" departSpeed="0.00" departDelay="0.29" arrival="180.00" arrivalLane="153964138#0_2" arrivalPos="337.99" arrivalSpeed="16.10" duration="167.00" routeLength="462.27" waitingTime="125.00" waitingCount="1" stopTime="0.00" timeLoss="136.06" rerouteNo="0" devices="tripinfo_6" vType="DEFAULT_VEHTYPE" speedFactor="0.98" vaporized=""/>
    <tripinfo id="27" depart="58.00" departLane="65746828#0_0" departPos="5.10" departSpeed="0.00" departDelay="0.82" arrival="192.00" arrivalLane="226276377#0_0" arrivalPos="135.52" arrivalSpeed="12.48" duration="134.00" routeLength="841.69" waitingTime="61.00" waitingCount="1" stopTime="0.00" timeLoss="73.77" rerouteNo="0" devices="tripinfo_27" vType="DEFAULT_VEHTYPE" speedFactor="0.93" vaporized=""/>
    <tripinfo id="14" depart="30.00" departLane="978867529_0" departPos="5.10" departSpeed="0.00" departDelay="0.35" arrival="202.00" arrivalLane="226276377#0_0" arrivalPos="135.52" arrivalSpeed="15.01" duration="172.00" routeLength="1369.55" waitingTime="71.00" waitingCount="1" stopTime="0.00" timeLoss="93.29" rerouteNo="0" devices="tripinfo_14" vType="DEFAULT_VEHTYPE" speedFactor="1.14" vaporized=""/>
    <tripinfo id="45" depart="97.00" departLane="-218680176#1_0" departPos="5.10" departSpeed="0.00" departDelay="1.71" arrival="210.00" arrivalLane="226276377#0_0" arrivalPos="135.52" arrivalSpeed="12.45" duration="113.00" routeLength="1117.57" waitingTime="13.00" waitingCount="1" stopTime="0.00" timeLoss="30.98" rerouteNo="0" devices="tripinfo_45" vType="DEFAULT_VEHTYPE" speedFactor="0.92" vaporized=""/>
    <tripinfo id="19" depart="42.00" departLane="978867529_0" departPos="5.10" departSpeed="0.00" departDelay="1.76" arrival="212.00" arrivalLane="226276377#0_0" arrivalPos="135.52" arrivalSpeed="13.16" duration="170.00" routeLength="1369.55" waitingTime="57.00" waitingCount="1" stopTime="0.00" timeLoss="82.17" rerouteNo="0" devices="tripinfo_19" vType="DEFAULT_VEHTYPE" speedFactor="1.03" vaporized=""/>
    <tripinfo id="41" depart="88.00" departLane="65746828#0_0" departPos="5.10" departSpeed="0.00" departDelay="1.18" arrival="219.00" arrivalLane="450554042#0_0" arrivalPos="622.66" arrivalSpeed="17.62" duration="131.00" routeLength="1340.72" waitingTime="31.00" waitingCount="2" stopTime="0.00" timeLoss="54.30" rerouteNo="0" devices="tripinfo_41" vType="DEFAULT_VEHTYPE" speedFactor="1.10" vaporized=""/>
    <tripinfo id="29" depart="63.00" departLane="-226276377#1_0" departPos="5.10" departSpeed="0.00" departDelay="1.59" arrival="223.00" arrivalLane="210831347#0_1" arrivalPos="149.88" arrivalSpeed="10.28" duration="160.00" routeLength="888.52" waitingTime="69.00" waitingCount="2" stopTime="0.00" timeLoss="84.62" rerouteNo="0" devices="tripinfo_29" vType="DEFAULT_VEHTYPE" speedFactor="0.81" vaporized=""/>
    <tripinfo id="53" depart="113.00" departLane="-226276377#1_0" departPos="5.10" departSpeed="0.00" departDelay="0.76" arrival="225.00" arrivalLane="210831347#0_1" arrivalPos="149.88" arrivalSpeed="13.55" duration="112.00" routeLength="888.52" waitingTime="37.00" waitingCount="1" stopTime="0.00" timeLoss="59.16" rerouteNo="0" devices="tripinfo_53" vType="DEFAULT_VEHTYPE" speedFactor="1.16" vaporized=""/>
    <tripinfo id="22" depart="47.00" departLane="-218680176#1_0" departPos="5.10" departSpeed="0.00" departDelay="0.41" arrival="227.00" arrivalLane="210831345#1_1" arrivalPos="264.29" arrivalSpeed="14.48" duration="180.00" routeLength="699.94" waitingTime="118.00" waitingCount="1" stopTime="0.00" timeLoss="131.24" rerouteNo="0" devices="tripinfo_22" vType="DEFAULT_VEHTYPE" speedFactor="1.06" vaporized=""/>
    <tripinfo id="23" depart="50.00" departLane="-218680176#1_0" departPos="5.10" departSpeed="0.00" departDelay="1.29" arrival="228.00" arrivalLane="210831345#1_1" arrivalPos="264.29" arrivalSpeed="15.12" duration="178.00" routeLength="699.94" waitingTime="117.00" waitingCount="1" stopTime="0.00" timeLoss="136.21" rerouteNo="0" devices="tripinfo_23" vType="DEFAULT_VEHTYPE" speedFactor="1.23" vaporized=""/>
    <tripinfo id="36" depart="77.00" departLane="978867529_0" departPos="5.10" departSpeed="0.00" departDelay="0.76" arrival="230.00" arrivalLane="210831345#1_1" arrivalPos="264.29" arrivalSpeed="15.10" duration="153.00" routeLength="951.92" waitingTime="75.00" waitingCount="2" stopTime="0.00" timeLoss="96.66" rerouteNo="0" devices="tripinfo_36" vType="DEFAULT_VEHTYPE" speedFactor="1.16" vaporized=""/>
    <tripinfo id="71" depart="151.00" departLane="-231177697#2_0" departPos="5.10" departSpeed="0.00" departDelay="0.65" arrival="231.00" arrivalLane="39907424_0" arrivalPos="316.44" arrivalSpeed="12.79" duration="80.00" routeLength="961.15" waitingTime="0.00" waitingCount="0" stopTime="0.00" timeLoss="11.04" rerouteNo="0" devices="tripinfo_71" vType="DEFAULT_VEHTYPE" speedFactor="0.98" vaporized=""/>
    <tripinfo id="55" depart="117.00" departLane="978867529_0" departPos="5.10" departSpeed="0.00" departDelay="0.53" arrival="235.00" arrivalLane="210831345#1_1" arrivalPos="264.29" arrivalSpeed="13.61" duration="118.00" routeLength="951.92" waitingTime="37.00" waitingCount="1" stopTime="0.00" timeLoss="51.30" rerouteNo="0" devices="tripinfo_55" vType="DEFAULT_VEHTYPE" speedFactor="0.99" vaporized=""/>
    <tripinfo id="1" depart="3.00" departLane="-231177697#2_0" departPos="5.10" departSpeed="0.00" departDelay="0.88" arrival="236.00" arrivalLane="210831345#1_0" arrivalPos="264.29" arrivalSpeed="14.46" duration="233.00" routeLength="696.92" waitingTime="165.00" waitingCount="2" stopTime="0.00" timeLoss="186.42" rerouteNo="0" devices="tripinfo_1" vType="DEFAULT_VEHTYPE" speedFactor="1.10" vaporized=""/>
    <tripinfo id="21" depart="45.00" departLane="-231177697#2_0" departPos="5.10" departSpeed="0.00" departDelay="0.53" arrival="238.00" arrivalLane="210831345#1_1" arrivalPos="264.29" arrivalSpeed="13.87" duration="193.00" routeLength="696.92" waitingTime="123.00" waitingCount="2" stopTime="0.00" timeLoss="143.34" rerouteNo="0" devices="tripinfo_21" vType="DEFAULT_VEHTYPE" speedFactor="1.04" vaporized=""/>
    <tripinfo id="49" depart="105.00" departLane="E8_0" departPos="5.10" departSpeed="0.00" departDelay="1.24" arrival="239.00" arrivalLane="39907424_0" arrivalPos="316.44" arrivalSpeed="13.80" duration="134.00" routeLength="1303.68" waitingTime="27.00" waitingCount="2" stopTime="0.00" timeLoss="47.96" rerouteNo="0" devices="tripinfo_49" vType="DEFAULT_VEHTYPE" speedFactor="1.06" vaporized=""/>
    <tripinfo id="18" depart="39.00" departLane="978867529_0" departPos="5.10" departSpeed="0.00" departDelay="0.88" arrival="240.00" arrivalLane="226276377#0_0" arrivalPos="135.52" arrivalSpeed="15.61" duration="201.00" routeLength="1369.55" waitingTime="85.00" waitingCount="2" stopTime="0.00" timeLoss="125.14" rerouteNo="0" devices="tripinfo_18" vType="DEFAULT_VEHTYPE" speedFactor="1.19" vaporized=""/>
    <tripinfo id="34" depart="72.00" departLane="-231177697#2_0" departPos="5.10" departSpeed="0.00" departDelay="0.00" arrival="240.00" arrivalLane="210831345#1_1" arrivalPos="264.29" arrivalSpeed="13.68" duration="168.00" routeLength="696.92" waitingTime="95.00" waitingCount="3" stopTime="0.00" timeLoss="116.44" rerouteNo="0" devices="tripinfo_34" vType="DEFAULT_VEHTYPE" speedFactor="0.99" vaporized=""/>
    <tripinfo id="57" depart="121.00" departLane="E8_0" departPos="5.10" departSpeed="0.00" departDelay="0.29" arrival="241.00" arrivalLane="39907424_0" arrivalPos="316.44" arrivalSpeed="14.62" duration="120.00" routeLength="1303.68" waitingTime="14.00" waitingCount="2" stopTime="0.00" timeLoss="34.30" rerouteNo="0" devices="tripinfo_57" vType="DEFAULT_VEHTYPE" speedFactor="1.06" vaporized=""/>
    <tripinfo id="39" depart="83.00" departLane="-231177697#2_0" departPos="5.10" departSpeed="0.00" departDelay="0.41" arrival="242.00" arrivalLane="210831345#1_1" arrivalPos="264.29" arrivalSpeed="12.96" duration="159.00" routeLength="696.92" waitingTime="85.00" waitingCount="3" stopTime="0.00" timeLoss="109.12" rerouteNo="0" devices="tripinfo_39" vType="DEFAULT_VEHTYPE" speedFactor="1.03" vaporized=""/>
    <tripinfo id="52" depart="111.00" departLane="-231177697#2_0" departPos="5.10" departSpeed="0.00" departDelay="0.88" arrival="244.00" arrivalLane="226276377#0_0" arrivalPos="135.52" arrivalSpeed="13.25" duration="133.00" routeLength="1114.55" waitingTime="40.00" waitingCount="1" stopTime="0.00" timeLoss="59.64" rerouteNo="0" devices="tripinfo_52" vType="DEFAULT_VEHTYPE" speedFactor="1.03" vaporized=""/>
    <tripinfo id="58" depart="123.00" departLane="-231177697#2_0" departPos="5.10" departSpeed="0.00" departDelay="0.18" arrival="246.00" arrivalLane="226276377#0_0" arrivalPos="135.52" arrivalSpeed="13.76" duration="123.00" routeLength="1114.55" waitingTime="31.00" waitingCount="1" stopTime="0.00" timeLoss="50.10" rerouteNo="0" devices="tripinfo_58" vType="DEFAULT_VEHTYPE" speedFactor="1.02" vaporized=""/>
    <tripinfo id="78" depart="166.00" departLane="-661251539_0" departPos="5.10" departSpeed="0.00" departDelay="0.82" arrival="255.00" arrivalLane="226276377#0_0" arrivalPos="135.52" arrivalSpeed="15.48" duration="89.00" routeLength="783.10" waitingTime="21.00" waitingCount="1" stopTime="0.00" timeLoss="41.81" rerouteNo="0" devices="tripinfo_78" vType="DEFAULT_VEHTYPE" speedFactor="1.16" vaporized=""/>
    <tripinfo id="91" depart="193.00" departLane="E8_0" departPos="5.10" departSpeed="0.00" departDelay="0.29" arrival="257.00" arrivalLane="-256961141#1_0" arrivalPos="204.72" arrivalSpeed="15.28" duration="64.00" routeLength="832.89" waitingTime="0.00" waitingCount="0" stopTime="0.00" timeLoss="9.05" rerouteNo="0" devices="tripinfo_91" vType="DEFAULT_VEHTYPE" speedFactor="1.10" vaporized=""/>
    <tripinfo id="28" depart="60.00" departLane="-226276377#1_0" departPos="5.10" departSpeed="0.00" departDelay="0.71" arrival="261.00" arrivalLane="231177697#0_0" arrivalPos="74.44" arrivalSpeed="16.43" duration="201.00" routeLength="1114.63" waitingTime="109.00" waitingCount="3" stopTime="0.00" timeLoss="136.77" rerouteNo="0" devices="tripinfo_28" vType="DEFAULT_VEHTYPE" speedFactor="1.21" vaporized=""/>
    <tripinfo id="61" depart="130.00" departLane="978867529_0" departPos="5.10" departSpeed="0.00" departDelay="0.82" arrival="263.00" arrivalLane="218680176#0_0" arrivalPos="98.94" arrivalSpeed="14.84" duration="133.00" routeLength="442.15" waitingTime="96.00" waitingCount="1" stopTime="0.00" timeLoss="106.13" rerouteNo="0" devices="tripinfo_61" vType="DEFAULT_VEHTYPE" speedFactor="1.08" vaporized=""/>
    <tripinfo id="26" depart="56.00" departLane="-231177697#2_0" departPos="5.10" departSpeed="0.00" departDelay="0.94" arrival="265.00" arrivalLane="450554042#0_0" arrivalPos="622.66" arrivalSpeed="18.74" duration="209.00" routeLength="1613.58" waitingTime="98.00" waitingCount="2" stopTime="0.00" timeLoss="121.09" rerouteNo="0" devices="tripinfo_26" vType="DEFAULT_VEHTYPE" speedFactor="1.17" vaporized=""/>
    <tripinfo id="42" depart="89.00" departLane="-661251539_0" departPos="5.10" departSpeed="0.00" departDelay="0.06" arrival="278.00" arrivalLane="153964138#0_0" arrivalPos="337.99" arrivalSpeed="16.75" duration="189.00" routeLength="1239.04" waitingTime="81.00" waitingCount="3" stopTime="0.00" timeLoss="108.69" rerouteNo="0" devices="tripinfo_42" vType="DEFAULT_VEHTYPE" speedFactor="1.07" vaporized=""/>
    <tripinfo id="72" depart="153.00" departLane="-661251539_0" departPos="5.10" departSpeed="0.00" departDelay="0.53" arrival="278.00" arrivalLane="153964138#0_2" arrivalPos="337.99" arrivalSpeed="15.82" duration="125.00" routeLength="1239.04" waitingTime="25.00" waitingCount="1" stopTime="0.00" timeLoss="41.31" rerouteNo="0" devices="tripinfo_72" vType="DEFAULT_VEHTYPE" speedFactor="1.02" vaporized=""/>
    <tripinfo id="108" depart="229.00" departLane="65746828#0_0" departPos="5.10" departSpeed="0.00" departDelay="0.29" arrival="278.00" arrivalLane="231177697#0_0" arrivalPos="74.44" arrivalSpeed="14.07" duration="49.00" routeLength="558.79" waitingTime="0.00" waitingCount="0" stopTime="0.00" timeLoss="7.21" rerouteNo="0" devices="tripinfo_108" vType="DEFAULT_VEHTYPE" speedFactor="1.02" vaporized=""/>
    <tripinfo id="56" depart="119.00" departLane="256961141#0_0" departPos="5.10" departSpeed="0.00" departDelay="0.41" arrival="279.00" arrivalLane="153964138#0_1" arrivalPos="337.99" arrivalSpeed="19.33" duration="160.00" routeLength="1439.25" waitingTime="55.00" waitingCount="2" stopTime="0.00" timeLoss="77.89" rerouteNo="0" devices="tripinfo_56" vType="DEFAULT_VEHTYPE" speedFactor="1.19" vaporized=""/>
    <tripinfo id="59" depart="125.00" departLane="65746828#0_0" departPos="5.10" departSpeed="0.00" departDelay="0.06" arrival="283.00" arrivalLane="153964138#0_1" arrivalPos="337.99" arrivalSpeed="14.43" duration="158.00" routeLength="834.49" waitingTime="86.00" waitingCount="1" stopTime="0.00" timeLoss="96.19" rerouteNo="0" devices="tripinfo_59" vType="DEFAULT_VEHTYPE" speedFactor="0.91" vaporized=""/>
    <tripinfo id="10" depart="23.00" departLane="978867529_0" departPos="5.10" departSpeed="0.00" departDelay="1.82" arrival="289.00" arrivalLane="231177697#0_1" arrivalPos="74.44" arrivalSpeed="11.91" duration="266.00" routeLength="437.06" waitingTime="222.00" waitingCount="1" stopTime="0.00" timeLoss="233.37" rerouteNo="0" devices="tripinfo_10" vType="DEFAULT_VEHTYPE" speedFactor="0.87" vaporized=""/>
    <tripinfo id="15" depart="33.00" departLane="978867529_0" departPos="5.10" departSpeed="0.00" departDelay="1.24" arrival="291.00" arrivalLane="231177697#0_1" arrivalPos="74.44" arrivalSpeed="13.17" duration="258.00" routeLength="437.06" waitingTime="216.00" waitingCount="1" stopTime="0.00" timeLoss="228.00" rerouteNo="0" devices="tripinfo_15" vType="DEFAULT_VEHTYPE" speedFactor="0.96" vaporized=""/>
    <tripinfo id="7" depart="15.00" departLane="65746828#0_0" departPos="5.10" departSpeed="0.00" departDelay="0.18" arrival="292.00" arrivalLane="218680176#0_1" arrivalPos="98.94" arrivalSpeed="10.98" duration="277.00" routeLength="602.71" waitingTime="207.00" waitingCount="2" stopTime="0.00" timeLoss="223.55" rerouteNo="0" devices="tripinfo_7" vType="DEFAULT_VEHTYPE" speedFactor="0.83" vaporized=""/>
    <tripinfo id="32" depart="68.00" departLane="978867529_0" departPos="5.10" departSpeed="0.00" departDelay="0.24" arrival="293.00" arrivalLane="231177697#0_1" arrivalPos="74.44" arrivalSpeed="11.77" duration="225.00" routeLength="437.06" waitingTime="184.00" waitingCount="1" stopTime="0.00" timeLoss="192.45" rerouteNo="0" devices="tripinfo_32" vType="DEFAULT_VEHTYPE" speedFactor="0.88" vaporized=""/>
    <tripinfo id="12" depart="26.00" departLane="E8_0" departPos="5.10" departSpeed="0.00" departDelay="0.59" arrival="294.00" arrivalLane="210831347#0_1" arrivalPos="149.88" arrivalSpeed="13.22" duration="268.00" routeLength="1367.17" waitingTime="151.00" waitingCount="2" stopTime="0.00" timeLoss="176.84" rerouteNo="0" devices="tripinfo_12" vType="DEFAULT_VEHTYPE" speedFactor="1.04" vaporized=""/>
    <tripinfo id="17" depart="36.00" departLane="-661251539_0" departPos="5.10" departSpeed="0.00" departDelay="0.00" arrival="294.00" arrivalLane="218680176#0_1" arrivalPos="98.94" arrivalSpeed="13.66" duration="258.00" routeLength="1001.21" waitingTime="163.00" waitingCount="2" stopTime="0.00" timeLoss="186.63" rerouteNo="0" devices="tripinfo_17" vType="DEFAULT_VEHTYPE" speedFactor="1.03" vaporized=""/>
    <tripinfo id="30" depart="64.00" departLane="E8_0" departPos="5.10" departSpeed="0.00" departDelay="0.47" arrival="294.00" arrivalLane="226276377#0_1" arrivalPos="135.52" arrivalSpeed="12.66" duration="230.00" routeLength="784.51" waitingTime="160.00" waitingCount="1" stopTime="0.00" timeLoss="171.47" rerouteNo="0" devices="tripinfo_30" vType="DEFAULT_VEHTYPE" speedFactor="0.99" vaporized=""/>
    <tripinfo id="69" depart="147.00" departLane="666135205#0_0" departPos="5.10" departSpeed="0.00" departDelay="0.88" arrival="295.00" arrivalLane="153964138#0_0" arrivalPos="337.99" arrivalSpeed="19.30" duration="148.00" routeLength="924.87" waitingTime="79.00" waitingCount="2" stopTime="0.00" timeLoss="93.94" rerouteNo="0" devices="tripinfo_69" vType="DEFAULT_VEHTYPE" speedFactor="1.18" vaporized=""/>
    <tripinfo id="51" depart="108.00" departLane="666135205#0_0" departPos="5.10" departSpeed="0.00" departDelay="0.00" arrival="296.00" arrivalLane="218680176#0_1" arrivalPos="98.94" arrivalSpeed="13.78" duration="188.00" routeLength="693.09" waitingTime="122.00" waitingCount="1" stopTime="0.00" timeLoss="136.32" rerouteNo="0" devices="tripinfo_51" vType="DEFAULT_VEHTYPE" speedFactor="1.00" vaporized=""/>
    <tripinfo id="92" depart="195.00" departLane="-661251539_0" departPos="5.10" departSpeed="0.00" departDelay="0.18" arrival="296.00" arrivalLane="210831347#0_1" arrivalPos="149.88" arrivalSpeed="14.35" duration="101.00" routeLength="731.18" waitingTime="27.00" waitingCount="2" stopTime="0.00" timeLoss="49.76" rerouteNo="0" devices="tripinfo_92" vType="DEFAULT_VEHTYPE" speedFactor="1.06" vaporized=""/>
    <tripinfo id="5" depart="11.00" departLane="-226276377#1_0" departPos="5.10" departSpeed="0.00" departDelay="0.41" arrival="297.00" arrivalLane="218680176#0_1" arrivalPos="98.94" arrivalSpeed="13.97" duration="286.00" routeLength="1158.55" waitingTime="183.00" waitingCount="3" stopTime="0.00" timeLoss="213.60" rerouteNo="0" devices="tripinfo_5" vType="DEFAULT_VEHTYPE" speedFactor="1.11" vaporized=""/>
    <tripinfo id="75" depart="159.00" departLane="E8_0" departPos="5.10" departSpeed="0.00" departDelay="0.18" arrival="298.00" arrivalLane="226276377#0_1" arrivalPos="135.52" arrivalSpeed="10.33" duration="139.00" routeLength="784.51" waitingTime="58.00" waitingCount="1" stopTime="0.00" timeLoss="69.14" rerouteNo="0" devices="tripinfo_75" vType="DEFAULT_VEHTYPE" speedFactor="0.82" vaporized=""/>
    <tripinfo id="70" depart="149.00" departLane="256961141#0_0" departPos="5.10" departSpeed="0.00" departDelay="0.76" arrival="299.00" arrivalLane="218680176#0_1" arrivalPos="98.94" arrivalSpeed="16.17" duration="150.00" routeLength="1207.47" waitingTime="61.00" waitingCount="1" stopTime="0.00" timeLoss="80.17" rerouteNo="0" devices="tripinfo_70" vType="DEFAULT_VEHTYPE" speedFactor="1.22" vaporized=""/>
    <tripinfo id="0" depart="0.00" departLane="65746828#0_0" departPos="5.10" departSpeed="0.00" departDelay="0.00" arrival="300.00" arrivalLane="-256961141#1_1" arrivalPos="204.72" arrivalSpeed="12.77" duration="300.00" routeLength="931.50" waitingTime="215.00" waitingCount="2" stopTime="0.00" timeLoss="234.49" rerouteNo="0" devices="tripinfo_0" vType="DEFAULT_VEHTYPE" speedFactor="0.96" vaporized=""/>
    <tripinfo id="85" depart="180.00" departLane="E8_0" departPos="5.10" departSpeed="0.00" departDelay="0.00" arrival="300.00" arrivalLane="226276377#0_1" arrivalPos="135.52" arrivalSpeed="13.38" duration="120.00" routeLength="784.51" waitingTime="50.00" waitingCount="1" stopTime="0.00" timeLoss="64.43" rerouteNo="0" devices="tripinfo_85" vType="DEFAULT_VEHTYPE" speedFactor="1.04" vaporized=""/>
    <tripinfo id="60" depart="128.00" departLane="666135205#0_0" departPos="5.10" departSpeed="0.00" departDelay="0.94" arrival="301.00" arrivalLane="218680176#0_1" arrivalPos="98.94" arrivalSpeed="12.94" duration="173.00" routeLength="693.09" waitingTime="103.00" waitingCount="2" stopTime="0.00" timeLoss="120.09" rerouteNo="0" devices="tripinfo_60" vType="DEFAULT_VEHTYPE" speedFactor="0.97" vaporized=""/>
    <tripinfo id="93" depart="197.00" departLane="978867529_0" departPos="5.10" departSpeed="0.00" departDelay="0.06" arrival="301.00" arrivalLane="210831345#1_1" arrivalPos="264.29" arrivalSpeed="13.95" duration="104.00" routeLength="951.92" waitingTime="30.00" waitingCount="1" stopTime="0.00" timeLoss="43.53" rerouteNo="0" devices="tripinfo_93" vType="DEFAULT_VEHTYPE" speedFactor="1.09" vaporized=""/>
    <tripinfo id="110" depart="233.00" departLane="E8_0" departPos="5.10" departSpeed="0.00" departDelay="0.06" arrival="302.00" arrivalLane="226276377#0_1" arrivalPos="135.52" arrivalSpeed="13.47" duration="69.00" routeLength="784.51" waitingTime="0.00" waitingCount="0" stopTime="0.00" timeLoss="13.32" rerouteNo="0" devices="tripinfo_110" vType="DEFAULT_VEHTYPE" speedFactor="1.04" vaporized=""/>
    <tripinfo id="4" depart="9.00" departLane="-661251539_0" departPos="5.10" departSpeed="0.00" departDelay="0.53" arrival="303.00" arrivalLane="-256961141#1_1" arrivalPos="204.72" arrivalSpeed="11.17" duration="294.00" routeLength="872.91" waitingTime="209.00" waitingCount="1" stopTime="0.00" timeLoss="224.69" rerouteNo="0" devices="tripinfo_4" vType="DEFAULT_VEHTYPE" speedFactor="0.88" vaporized=""/>
    <tripinfo id="20" depart="43.00" departLane="666135205#0_0" departPos="5.10" departSpeed="0.00" departDelay="0.65" arrival="305.00" arrivalLane="-256961141#1_1" arrivalPos="204.72" arrivalSpeed="12.13" duration="262.00" routeLength="1068.72" waitingTime="165.00" waitingCount="2" stopTime="0.00" timeLoss="183.49" rerouteNo="0" devices="tripinfo_20" vType="DEFAULT_VEHTYPE" speedFactor="0.92" vaporized=""/>
    <tripinfo id="13" depart="28.00" departLane="-218680176#1_0" departPos="5.10" departSpeed="0.00" departDelay="0.47" arrival="306.00" arrivalLane="-256961141#1_1" arrivalPos="204.72" arrivalSpeed="14.19" duration="278.00" routeLength="1207.38" waitingTime="172.00" waitingCount="3" stopTime="0.00" timeLoss="202.71" rerouteNo="0" devices="tripinfo_13" vType="DEFAULT_VEHTYPE" speedFactor="1.09" vaporized=""/>
    <tripinfo id="9" depart="20.00" departLane="978867529_0" departPos="5.10" departSpeed="0.00" departDelay="0.94" arrival="308.00" arrivalLane="-256961141#1_1" arrivalPos="204.72" arrivalSpeed="13.35" duration="288.00" routeLength="1459.36" waitingTime="161.00" waitingCount="2" stopTime="0.00" timeLoss="188.60" rerouteNo="0" devices="tripinfo_9" vType="DEFAULT_VEHTYPE" speedFactor="0.96" vaporized=""/>
    <tripinfo id="44" depart="94.00" departLane="-218680176#1_0" departPos="5.10" departSpeed="0.00" departDelay="0.82" arrival="310.00" arrivalLane="-256961141#1_1" arrivalPos="204.72" arrivalSpeed="13.80" duration="216.00" routeLength="1207.38" waitingTime="113.00" waitingCount="2" stopTime="0.00" timeLoss="137.95" rerouteNo="0" devices="tripinfo_44" vType="DEFAULT_VEHTYPE" speedFactor="1.06" vaporized=""/>
    <tripinfo id="33" depart="70.00" departLane="-231177697#2_0" departPos="5.10" departSpeed="0.00" departDelay="0.12" arrival="312.00" arrivalLane="-256961141#1_1" arrivalPos="204.72" arrivalSpeed="13.01" duration="242.00" routeLength="1204.36" waitingTime="135.00" waitingCount="3" stopTime="0.00" timeLoss="158.37" rerouteNo="0" devices="tripinfo_33" vType="DEFAULT_VEHTYPE" speedFactor="0.98" vaporized=""/>
    <tripinfo id="103" depart="219.00" departLane="-661251539_0" departPos="5.10" departSpeed="0.00" departDelay="0.88" arrival="313.00" arrivalLane="-256961141#1_1" arrivalPos="204.72" arrivalSpeed="14.74" duration="94.00" routeLength="872.91" waitingTime="19.00" waitingCount="1" stopTime="0.00" timeLoss="37.33" rerouteNo="0" devices="tripinfo_103" vType="DEFAULT_VEHTYPE" speedFactor="1.07" vaporized=""/>