<?xml version="1.0" encoding="UTF-8"?>

<!-- generated on 2024-09-03 02:36:15 by Eclipse SUMO sumo Version 1.20.0
<configuration xmlns:xsi="http://www.w3.org/2001/XMLSchema-instance" xsi:noNamespaceSchemaLocation="http://sumo.dlr.de/xsd/sumoConfiguration.xsd">

    <input>
        <net-file value="c:\self\School\Master\Disertation\code\RESCO\resco_benchmark\environments/unirii/osm.net.xml.gz"/>
        <route-files value="c:\self\School\Master\Disertation\code\RESCO\resco_benchmark\environments/unirii/osm.passenger.trips.xml"/>
        <additional-files value="c:\self\School\Master\Disertation\code\RESCO\resco_benchmark\environments/unirii/osm.poly.xml.gz"/>
    </input>

    <output>
        <tripinfo-output value="C:\self\School\Master\Disertation\code\RESCO\results\IA2C-tr0-unirii-0-drq_norm-wait_norm\tripinfo_5.xml"/>
        <tripinfo-output.write-unfinished value="true"/>
    </output>

    <processing>
        <ignore-route-errors value="true"/>
        <time-to-teleport value="-1"/>
    </processing>

    <routing>
        <device.rerouting.adaptation-steps value="18"/>
        <device.rerouting.adaptation-interval value="10"/>
    </routing>

    <report>
        <verbose value="true"/>
        <no-warnings value="True"/>
        <duration-log.statistics value="true"/>
        <no-step-log value="True"/>
    </report>

    <traci_server>
        <remote-port value="51832"/>
    </traci_server>

    <random_number>
        <random value="true"/>
    </random_number>

    <gui_only>
        <gui-settings-file value="c:\self\School\Master\Disertation\code\RESCO\resco_benchmark\environments/unirii/osm.view.xml"/>
    </gui_only>

</configuration>
-->

<tripinfos xmlns:xsi="http://www.w3.org/2001/XMLSchema-instance" xsi:noNamespaceSchemaLocation="http://sumo.dlr.de/xsd/tripinfo_file.xsd">
    <tripinfo id="6" depart="13.00" departLane="-218680176#1_0" departPos="5.10" departSpeed="0.00" departDelay="0.29" arrival="60.00" arrivalLane="153964138#0_1" arrivalPos="337.99" arrivalSpeed="13.37" duration="47.00" routeLength="462.27" waitingTime="0.00" waitingCount="0" stopTime="0.00" timeLoss="10.69" rerouteNo="0" devices="tripinfo_6" vType="DEFAULT_VEHTYPE" speedFactor="0.83" vaporized=""/>
    <tripinfo id="3" depart="7.00" departLane="E8_0" departPos="5.10" departSpeed="0.00" departDelay="0.65" arrival="84.00" arrivalLane="-256961141#1_0" arrivalPos="204.72" arrivalSpeed="11.36" duration="77.00" routeLength="832.89" waitingTime="0.00" waitingCount="0" stopTime="0.00" timeLoss="9.75" rerouteNo="0" devices="tripinfo_3" vType="DEFAULT_VEHTYPE" speedFactor="0.91" vaporized=""/>
    <tripinfo id="2" depart="5.00" departLane="666135205#0_0" departPos="5.10" departSpeed="0.00" departDelay="0.76" arrival="87.00" arrivalLane="231177697#0_0" arrivalPos="74.44" arrivalSpeed="13.39" duration="82.00" routeLength="649.17" waitingTime="20.00" waitingCount="1" stopTime="0.00" timeLoss="34.47" rerouteNo="0" devices="tripinfo_2" vType="DEFAULT_VEHTYPE" speedFactor="1.02" vaporized=""/>
    <tripinfo id="10" depart="23.00" departLane="978867529_0" departPos="5.10" departSpeed="0.00" departDelay="1.82" arrival="138.00" arrivalLane="231177697#0_1" arrivalPos="74.44" arrivalSpeed="14.51" duration="115.00" routeLength="437.06" waitingTime="75.00" waitingCount="1" stopTime="0.00" timeLoss="87.42" rerouteNo="0" devices="tripinfo_10" vType="DEFAULT_VEHTYPE" speedFactor="1.06" vaporized=""/>
    <tripinfo id="15" depart="33.00" departLane="978867529_0" departPos="5.10" departSpeed="0.00" departDelay="1.24" arrival="141.00" arrivalLane="231177697#0_1" arrivalPos="74.44" arrivalSpeed="13.65" duration="108.00" routeLength="437.06" waitingTime="67.00" waitingCount="1" stopTime="0.00" timeLoss="78.53" rerouteNo="0" devices="tripinfo_15" vType="DEFAULT_VEHTYPE" speedFactor="0.99" vaporized=""/>
    <tripinfo id="17" depart="36.00" departLane="-661251539_0" departPos="5.10" departSpeed="0.00" departDelay="0.00" arrival="142.00" arrivalLane="218680176#0_1" arrivalPos="98.94" arrivalSpeed="10.33" duration="106.00" routeLength="1001.21" waitingTime="0.00" waitingCount="0" stopTime="0.00" timeLoss="11.37" rerouteNo="0" devices="tripinfo_17" vType="DEFAULT_VEHTYPE" speedFactor="0.77" vaporized=""/>
    <tripinfo id="32" depart="68.00" departLane="978867529_0" departPos="5.10" departSpeed="0.00" departDelay="0.24" arrival="143.00" arrivalLane="231177697#0_1" arrivalPos="74.44" arrivalSpeed="12.50" duration="75.00" routeLength="437.06" waitingTime="34.00" waitingCount="1" stopTime="0.00" timeLoss="44.69" rerouteNo="0" devices="tripinfo_32" vType="DEFAULT_VEHTYPE" speedFactor="0.95" vaporized=""/>
    <tripinfo id="35" depart="75.00" departLane="-226276377#1_0" departPos="5.10" departSpeed="0.00" departDelay="0.88" arrival="143.00" arrivalLane="450554042#0_0" arrivalPos="622.66" arrivalSpeed="17.18" duration="68.00" routeLength="763.53" waitingTime="11.00" waitingCount="1" stopTime="0.00" timeLoss="23.92" rerouteNo="0" devices="tripinfo_35" vType="DEFAULT_VEHTYPE" speedFactor="1.10" vaporized=""/>
    <tripinfo id="12" depart="26.00" departLane="E8_0" departPos="5.10" departSpeed="0.00" departDelay="0.59" arrival="146.00" arrivalLane="210831347#0_1" arrivalPos="149.88" arrivalSpeed="11.16" duration="120.00" routeLength="1367.17" waitingTime="0.00" waitingCount="0" stopTime="0.00" timeLoss="13.67" rerouteNo="0" devices="tripinfo_12" vType="DEFAULT_VEHTYPE" speedFactor="0.90" vaporized=""/>
    <tripinfo id="1" depart="3.00" departLane="-231177697#2_0" departPos="5.10" departSpeed="0.00" departDelay="0.88" arrival="151.00" arrivalLane="210831345#1_1" arrivalPos="264.29" arrivalSpeed="15.10" duration="148.00" routeLength="696.92" waitingTime="84.00" waitingCount="2" stopTime="0.00" timeLoss="102.50" rerouteNo="0" devices="tripinfo_1" vType="DEFAULT_VEHTYPE" speedFactor="1.13" vaporized=""/>
    <tripinfo id="21" depart="45.00" departLane="-231177697#2_0" departPos="5.10" departSpeed="0.00" departDelay="0.53" arrival="159.00" arrivalLane="210831345#1_0" arrivalPos="264.29" arrivalSpeed="10.48" duration="114.00" routeLength="696.92" waitingTime="42.00" waitingCount="1" stopTime="0.00" timeLoss="53.13" rerouteNo="0" devices="tripinfo_21" vType="DEFAULT_VEHTYPE" speedFactor="0.84" vaporized=""/>
    <tripinfo id="34" depart="72.00" departLane="-231177697#2_0" departPos="5.10" departSpeed="0.00" departDelay="0.00" arrival="161.00" arrivalLane="210831345#1_1" arrivalPos="264.29" arrivalSpeed="11.49" duration="89.00" routeLength="696.92" waitingTime="20.00" waitingCount="1" stopTime="0.00" timeLoss="32.50" rerouteNo="0" devices="tripinfo_34" vType="DEFAULT_VEHTYPE" speedFactor="0.90" vaporized=""/>
    <tripinfo id="39" depart="83.00" departLane="-231177697#2_0" departPos="5.10" departSpeed="0.00" departDelay="0.41" arrival="168.00" arrivalLane="210831345#1_0" arrivalPos="264.29" arrivalSpeed="11.27" duration="85.00" routeLength="696.92" waitingTime="12.00" waitingCount="1" stopTime="0.00" timeLoss="23.17" rerouteNo="0" devices="tripinfo_39" vType="DEFAULT_VEHTYPE" speedFactor="0.82" vaporized=""/>
    <tripinfo id="40" depart="85.00" departLane="65746828#0_0" departPos="5.10" departSpeed="0.00" departDelay="0.29" arrival="174.00" arrivalLane="210831345#1_0" arrivalPos="264.29" arrivalSpeed="11.85" duration="89.00" routeLength="446.75" waitingTime="46.00" waitingCount="1" stopTime="0.00" timeLoss="54.82" rerouteNo="0" devices="tripinfo_40" vType="DEFAULT_VEHTYPE" speedFactor="0.95" vaporized=""/>
    <tripinfo id="61" depart="130.00" departLane="978867529_0" departPos="5.10" departSpeed="0.00" departDelay="0.82" arrival="192.00" arrivalLane="218680176#0_0" arrivalPos="98.94" arrivalSpeed="13.60" duration="62.00" routeLength="442.15" waitingTime="20.00" waitingCount="1" stopTime="0.00" timeLoss="32.17" rerouteNo="0" devices="tripinfo_61" vType="DEFAULT_VEHTYPE" speedFactor="0.98" vaporized=""/>
    <tripinfo id="27" depart="58.00" departLane="65746828#0_0" departPos="5.10" departSpeed="0.00" departDelay="0.82" arrival="193.00" arrivalLane="226276377#0_0" arrivalPos="135.52" arrivalSpeed="12.36" duration="135.00" routeLength="841.69" waitingTime="61.00" waitingCount="1" stopTime="0.00" timeLoss="75.07" rerouteNo="0" devices="tripinfo_27" vType="DEFAULT_VEHTYPE" speedFactor="0.95" vaporized=""/>
    <tripinfo id="19" depart="42.00" departLane="978867529_0" departPos="5.10" departSpeed="0.00" departDelay="1.76" arrival="194.00" arrivalLane="226276377#0_0" arrivalPos="135.52" arrivalSpeed="14.06" duration="152.00" routeLength="1369.55" waitingTime="44.00" waitingCount="2" stopTime="0.00" timeLoss="66.58" rerouteNo="0" devices="tripinfo_19" vType="DEFAULT_VEHTYPE" speedFactor="1.05" vaporized=""/>
    <tripinfo id="18" depart="39.00" departLane="978867529_0" departPos="5.10" departSpeed="0.00" departDelay="0.88" arrival="197.00" arrivalLane="226276377#0_0" arrivalPos="135.52" arrivalSpeed="13.57" duration="158.00" routeLength="1369.55" waitingTime="44.00" waitingCount="2" stopTime="0.00" timeLoss="67.14" rerouteNo="0" devices="tripinfo_18" vType="DEFAULT_VEHTYPE" speedFactor="0.99" vaporized=""/>
    <tripinfo id="25" depart="53.00" departLane="-661251539_0" departPos="5.10" departSpeed="0.00" departDelay="0.06" arrival="202.00" arrivalLane="153964138#0_1" arrivalPos="337.99" arrivalSpeed="17.62" duration="149.00" routeLength="1239.04" waitingTime="53.00" waitingCount="1" stopTime="0.00" timeLoss="70.28" rerouteNo="0" devices="tripinfo_25" vType="DEFAULT_VEHTYPE" speedFactor="1.09" vaporized=""/>
    <tripinfo id="14" depart="30.00" departLane="978867529_0" departPos="5.10" departSpeed="0.00" departDelay="0.35" arrival="203.00" arrivalLane="226276377#0_0" arrivalPos="135.52" arrivalSpeed="10.86" duration="173.00" routeLength="1369.55" waitingTime="41.00" waitingCount="2" stopTime="0.00" timeLoss="61.83" rerouteNo="0" devices="tripinfo_14" vType="DEFAULT_VEHTYPE" speedFactor="0.81" vaporized=""/>
    <tripinfo id="11" depart="24.00" departLane="-661251539_0" departPos="5.10" departSpeed="0.00" departDelay="0.71" arrival="205.00" arrivalLane="153964138#0_0" arrivalPos="337.99" arrivalSpeed="14.50" duration="181.00" routeLength="1239.04" waitingTime="71.00" waitingCount="2" stopTime="0.00" timeLoss="90.34" rerouteNo="0" devices="tripinfo_11" vType="DEFAULT_VEHTYPE" speedFactor="0.94" vaporized=""/>
    <tripinfo id="42" depart="89.00" departLane="-661251539_0" departPos="5.10" departSpeed="0.00" departDelay="0.06" arrival="205.00" arrivalLane="153964138#0_1" arrivalPos="337.99" arrivalSpeed="16.90" duration="116.00" routeLength="1239.04" waitingTime="12.00" waitingCount="1" stopTime="0.00" timeLoss="34.53" rerouteNo="0" devices="tripinfo_42" vType="DEFAULT_VEHTYPE" speedFactor="1.06" vaporized=""/>
    <tripinfo id="52" depart="111.00" departLane="-231177697#2_0" departPos="5.10" departSpeed="0.00" departDelay="0.88" arrival="205.00" arrivalLane="226276377#0_0" arrivalPos="135.52" arrivalSpeed="14.02" duration="94.00" routeLength="1114.55" waitingTime="6.00" waitingCount="1" stopTime="0.00" timeLoss="20.94" rerouteNo="0" devices="tripinfo_52" vType="DEFAULT_VEHTYPE" speedFactor="1.04" vaporized=""/>
    <tripinfo id="22" depart="47.00" departLane="-218680176#1_0" departPos="5.10" departSpeed="0.00" departDelay="0.41" arrival="214.00" arrivalLane="210831345#1_1" arrivalPos="264.29" arrivalSpeed="15.28" duration="167.00" routeLength="699.94" waitingTime="110.00" waitingCount="2" stopTime="0.00" timeLoss="123.85" rerouteNo="0" devices="tripinfo_22" vType="DEFAULT_VEHTYPE" speedFactor="1.19" vaporized=""/>
    <tripinfo id="46" depart="98.00" departLane="978867529_0" departPos="5.10" departSpeed="0.00" departDelay="0.59" arrival="216.00" arrivalLane="210831347#0_0" arrivalPos="149.88" arrivalSpeed="14.37" duration="118.00" routeLength="812.56" waitingTime="48.00" waitingCount="2" stopTime="0.00" timeLoss="68.02" rerouteNo="0" devices="tripinfo_46" vType="DEFAULT_VEHTYPE" speedFactor="1.12" vaporized=""/>
    <tripinfo id="30" depart="64.00" departLane="E8_0" departPos="5.10" departSpeed="0.00" departDelay="0.47" arrival="217.00" arrivalLane="226276377#0_1" arrivalPos="135.52" arrivalSpeed="14.84" duration="153.00" routeLength="784.51" waitingTime="88.00" waitingCount="1" stopTime="0.00" timeLoss="99.94" rerouteNo="0" devices="tripinfo_30" vType="DEFAULT_VEHTYPE" speedFactor="1.08" vaporized=""/>
    <tripinfo id="26" depart="56.00" departLane="-231177697#2_0" departPos="5.10" departSpeed="0.00" departDelay="0.94" arrival="220.00" arrivalLane="450554042#0_0" arrivalPos="622.66" arrivalSpeed="17.09" duration="164.00" routeLength="1613.58" waitingTime="50.00" waitingCount="1" stopTime="0.00" timeLoss="65.38" rerouteNo="0" devices="tripinfo_26" vType="DEFAULT_VEHTYPE" speedFactor="1.05" vaporized=""/>
    <tripinfo id="75" depart="159.00" departLane="E8_0" departPos="5.10" departSpeed="0.00" departDelay="0.18" arrival="220.00" arrivalLane="226276377#0_1" arrivalPos="135.52" arrivalSpeed="13.12" duration="61.00" routeLength="784.51" waitingTime="0.00" waitingCount="0" stopTime="0.00" timeLoss="5.61" rerouteNo="0" devices="tripinfo_75" vType="DEFAULT_VEHTYPE" speedFactor="1.03" vaporized=""/>
    <tripinfo id="4" depart="9.00" departLane="-661251539_0" departPos="5.10" departSpeed="0.00" departDelay="0.53" arrival="224.00" arrivalLane="-256961141#1_1" arrivalPos="204.72" arrivalSpeed="13.14" duration="215.00" routeLength="872.91" waitingTime="136.00" waitingCount="1" stopTime="0.00" timeLoss="150.86" rerouteNo="0" devices="tripinfo_4" vType="DEFAULT_VEHTYPE" speedFactor="0.96" vaporized=""/>
    <tripinfo id="0" depart="0.00" departLane="65746828#0_0" departPos="5.10" departSpeed="0.00" departDelay="0.00" arrival="226.00" arrivalLane="-256961141#1_1" arrivalPos="204.72" arrivalSpeed="12.76" duration="226.00" routeLength="931.50" waitingTime="144.00" waitingCount="2" stopTime="0.00" timeLoss="163.25" rerouteNo="0" devices="tripinfo_0" vType="DEFAULT_VEHTYPE" speedFactor="1.00" vaporized=""/>
    <tripinfo id="9" depart="20.00" departLane="978867529_0" departPos="5.10" departSpeed="0.00" departDelay="0.94" arrival="227.00" arrivalLane="-256961141#1_1" arrivalPos="204.72" arrivalSpeed="14.73" duration="207.00" routeLength="1459.36" waitingTime="103.00" waitingCount="2" stopTime="0.00" timeLoss="128.75" rerouteNo="0" devices="tripinfo_9" vType="DEFAULT_VEHTYPE" speedFactor="1.23" vaporized=""/>
    <tripinfo id="49" depart="105.00" departLane="E8_0" departPos="5.10" departSpeed="0.00" departDelay="1.24" arrival="227.00" arrivalLane="39907424_0" arrivalPos="316.44" arrivalSpeed="15.40" duration="122.00" routeLength="1303.68" waitingTime="24.00" waitingCount="1" stopTime="0.00" timeLoss="40.77" rerouteNo="0" devices="tripinfo_49" vType="DEFAULT_VEHTYPE" speedFactor="1.12" vaporized=""/>
    <tripinfo id="33" depart="70.00" departLane="-231177697#2_0" departPos="5.10" departSpeed="0.00" departDelay="0.12" arrival="232.00" arrivalLane="-256961141#1_1" arrivalPos="204.72" arrivalSpeed="10.67" duration="162.00" routeLength="1204.36" waitingTime="43.00" waitingCount="3" stopTime="0.00" timeLoss="67.43" rerouteNo="0" devices="tripinfo_33" vType="DEFAULT_VEHTYPE" speedFactor="0.86" vaporized=""/>
    <tripinfo id="57" depart="121.00" departLane="E8_0" departPos="5.10" departSpeed="0.00" departDelay="0.29" arrival="232.00" arrivalLane="39907424_0" arrivalPos="316.44" arrivalSpeed="13.55" duration="111.00" routeLength="1303.68" waitingTime="5.00" waitingCount="1" stopTime="0.00" timeLoss="21.54" rerouteNo="0" devices="tripinfo_57" vType="DEFAULT_VEHTYPE" speedFactor="1.01" vaporized=""/>
    <tripinfo id="13" depart="28.00" departLane="-218680176#1_0" departPos="5.10" departSpeed="0.00" departDelay="0.47" arrival="234.00" arrivalLane="-256961141#1_1" arrivalPos="204.72" arrivalSpeed="13.33" duration="206.00" routeLength="1207.38" waitingTime="106.00" waitingCount="1" stopTime="0.00" timeLoss="127.65" rerouteNo="0" devices="tripinfo_13" vType="DEFAULT_VEHTYPE" speedFactor="1.05" vaporized=""/>
    <tripinfo id="50" depart="106.00" departLane="-218680176#1_0" departPos="5.10" departSpeed="0.00" departDelay="0.12" arrival="247.00" arrivalLane="231177697#0_0" arrivalPos="74.44" arrivalSpeed="14.67" duration="141.00" routeLength="205.97" waitingTime="101.00" waitingCount="3" stopTime="0.00" timeLoss="127.87" rerouteNo="0" devices="tripinfo_50" vType="DEFAULT_VEHTYPE" speedFactor="1.15" vaporized=""/>
    <tripinfo id="64" depart="136.00" departLane="978867529_0" departPos="5.10" departSpeed="0.00" departDelay="0.47" arrival="251.00" arrivalLane="39907424_0" arrivalPos="316.44" arrivalSpeed="13.73" duration="115.00" routeLength="1216.15" waitingTime="16.00" waitingCount="1" stopTime="0.00" timeLoss="34.16" rerouteNo="0" devices="tripinfo_64" vType="DEFAULT_VEHTYPE" speedFactor="1.02" vaporized=""/>
    <tripinfo id="68" depart="144.00" departLane="-218680176#1_0" departPos="5.10" departSpeed="0.00" departDelay="0.00" arrival="256.00" arrivalLane="231177697#0_0" arrivalPos="74.44" arrivalSpeed="10.74" duration="112.00" routeLength="205.97" waitingTime="66.00" waitingCount="3" stopTime="0.00" timeLoss="94.06" rerouteNo="0" devices="tripinfo_68" vType="DEFAULT_VEHTYPE" speedFactor="0.86" vaporized=""/>
    <tripinfo id="79" depart="168.00" departLane="-231177697#2_0" departPos="5.10" departSpeed="0.00" departDelay="0.71" arrival="258.00" arrivalLane="153964138#0_0" arrivalPos="337.99" arrivalSpeed="13.19" duration="90.00" routeLength="417.38" waitingTime="49.00" waitingCount="1" stopTime="0.00" timeLoss="57.31" rerouteNo="0" devices="tripinfo_79" vType="DEFAULT_VEHTYPE" speedFactor="0.83" vaporized=""/>
    <tripinfo id="73" depart="155.00" departLane="256961141#0_0" departPos="5.10" departSpeed="0.00" departDelay="0.41" arrival="264.00" arrivalLane="231177697#0_0" arrivalPos="74.44" arrivalSpeed="14.21" duration="109.00" routeLength="1163.55" waitingTime="17.00" waitingCount="1" stopTime="0.00" timeLoss="33.43" rerouteNo="0" devices="tripinfo_73" vType="DEFAULT_VEHTYPE" speedFactor="1.08" vaporized=""/>
    <tripinfo id="78" depart="166.00" departLane="-661251539_0" departPos="5.10" departSpeed="0.00" departDelay="0.82" arrival="270.00" arrivalLane="226276377#0_0" arrivalPos="135.52" arrivalSpeed="13.33" duration="104.00" routeLength="783.10" waitingTime="30.00" waitingCount="2" stopTime="0.00" timeLoss="47.85" rerouteNo="0" devices="tripinfo_78" vType="DEFAULT_VEHTYPE" speedFactor="0.97" vaporized=""/>
    <tripinfo id="54" depart="115.00" departLane="256961141#0_0" departPos="5.10" departSpeed="0.00" departDelay="0.65" arrival="271.00" arrivalLane="450554042#0_1" arrivalPos="622.66" arrivalSpeed="18.44" duration="156.00" routeLength="853.74" waitingTime="96.00" waitingCount="1" stopTime="0.00" timeLoss="107.55" rerouteNo="0" devices="tripinfo_54" vType="DEFAULT_VEHTYPE" speedFactor="1.14" vaporized=""/>
    <tripinfo id="91" depart="193.00" departLane="E8_0" departPos="5.10" departSpeed="0.00" departDelay="0.29" arrival="271.00" arrivalLane="-256961141#1_0" arrivalPos="204.72" arrivalSpeed="14.13" duration="78.00" routeLength="832.89" waitingTime="8.00" waitingCount="1" stopTime="0.00" timeLoss="20.97" rerouteNo="0" devices="tripinfo_91" vType="DEFAULT_VEHTYPE" speedFactor="1.06" vaporized=""/>
    <tripinfo id="16" depart="34.00" departLane="256961141#0_0" departPos="5.10" departSpeed="0.00" departDelay="0.12" arrival="275.00" arrivalLane="450554042#0_0" arrivalPos="622.66" arrivalSpeed="14.68" duration="241.00" routeLength="853.74" waitingTime="171.00" waitingCount="1" stopTime="0.00" timeLoss="182.09" rerouteNo="0" devices="tripinfo_16" vType="DEFAULT_VEHTYPE" speedFactor="0.93" vaporized=""/>
    <tripinfo id="86" depart="183.00" departLane="256961141#0_0" departPos="5.10" departSpeed="0.00" departDelay="0.88" arrival="276.00" arrivalLane="39907424_0" arrivalPos="316.44" arrivalSpeed="13.53" duration="93.00" routeLength="873.95" waitingTime="19.00" waitingCount="1" stopTime="0.00" timeLoss="31.06" rerouteNo="0" devices="tripinfo_86" vType="DEFAULT_VEHTYPE" speedFactor="0.98" vaporized=""/>
    <tripinfo id="95" depart="202.00" departLane="-661251539_0" departPos="5.10" departSpeed="0.00" departDelay="0.82" arrival="277.00" arrivalLane="210831345#1_0" arrivalPos="264.29" arrivalSpeed="14.42" duration="75.00" routeLength="826.64" waitingTime="2.00" waitingCount="1" stopTime="0.00" timeLoss="19.35" rerouteNo="0" devices="tripinfo_95" vType="DEFAULT_VEHTYPE" speedFactor="1.08" vaporized=""/>
    <tripinfo id="47" depart="100.00" departLane="-218680176#1_0" departPos="5.10" departSpeed="0.00" departDelay="0.47" arrival="278.00" arrivalLane="210831347#0_0" arrivalPos="149.88" arrivalSpeed="11.97" duration="178.00" routeLength="560.58" waitingTime="106.00" waitingCount="3" stopTime="0.00" timeLoss="132.77" rerouteNo="0" devices="tripinfo_47" vType="DEFAULT_VEHTYPE" speedFactor="0.94" vaporized=""/>
    <tripinfo id="56" depart="119.00" departLane="256961141#0_0" departPos="5.10" departSpeed="0.00" departDelay="0.41" arrival="279.00" arrivalLane="153964138#0_0" arrivalPos="337.99" arrivalSpeed="15.13" duration="160.00" routeLength="1439.25" waitingTime="42.00" waitingCount="2" stopTime="0.00" timeLoss="61.96" rerouteNo="0" devices="tripinfo_56" vType="DEFAULT_VEHTYPE" speedFactor="0.98" vaporized=""/>
    <tripinfo id="72" depart="153.00" departLane="-661251539_0" departPos="5.10" departSpeed="0.00" departDelay="0.53" arrival="279.00" arrivalLane="153964138#0_1" arrivalPos="337.99" arrivalSpeed="15.03" duration="126.00" routeLength="1239.04" waitingTime="22.00" waitingCount="1" stopTime="0.00" timeLoss="37.26" rerouteNo="0" devices="tripinfo_72" vType="DEFAULT_VEHTYPE" speedFactor="0.97" vaporized=""/>
    <tripinfo id="66" depart="140.00" departLane="978867529_0" departPos="5.10" departSpeed="0.00" departDelay="0.24" arrival="291.00" arrivalLane="450554042#0_0" arrivalPos="622.66" arrivalSpeed="19.04" duration="151.00" routeLength="1868.58" waitingTime="23.00" waitingCount="2" stopTime="0.00" timeLoss="49.23" rerouteNo="0" devices="tripinfo_66" vType="DEFAULT_VEHTYPE" speedFactor="1.15" vaporized=""/>
    <tripinfo id="85" depart="180.00" departLane="E8_0" departPos="5.10" departSpeed="0.00" departDelay="0.00" arrival="292.00" arrivalLane="226276377#0_1" arrivalPos="135.52" arrivalSpeed="14.69" duration="112.00" routeLength="784.51" waitingTime="49.00" waitingCount="1" stopTime="0.00" timeLoss="61.72" rerouteNo="0" devices="tripinfo_85" vType="DEFAULT_VEHTYPE" speedFactor="1.14" vaporized=""/>
    <tripinfo id="82" depart="174.00" departLane="978867529_0" departPos="5.10" departSpeed="0.00" departDelay="0.35" arrival="297.00" arrivalLane="-256961141#1_1" arrivalPos="204.72" arrivalSpeed="15.66" duration="123.00" routeLength="1459.36" waitingTime="25.00" waitingCount="1" stopTime="0.00" timeLoss="39.03" rerouteNo="0" devices="tripinfo_82" vType="DEFAULT_VEHTYPE" speedFactor="1.15" vaporized=""/>
    <tripinfo id="41" depart="88.00" departLane="65746828#0_0" departPos="5.10" departSpeed="0.00" departDelay="1.18" arrival="299.00" arrivalLane="450554042#0_0" arrivalPos="622.66" arrivalSpeed="15.58" duration="211.00" routeLength="1340.72" waitingTime="99.00" waitingCount="3" stopTime="0.00" timeLoss="124.32" rerouteNo="0" devices="tripinfo_41" vType="DEFAULT_VEHTYPE" speedFactor="0.97" vaporized=""/>
    <tripinfo id="110" depart="233.00" departLane="E8_0" departPos="5.10" departSpeed="0.00" departDelay="0.06" arrival="303.00" arrivalLane="226276377#0_1" arrivalPos="135.52" arrivalSpeed="11.90" duration="70.00" routeLength="784.51" waitingTime="0.00" waitingCount="0" stopTime="0.00" timeLoss="6.07" rerouteNo="0" devices="tripinfo_110" vType="DEFAULT_VEHTYPE" speedFactor="0.90" vaporized=""/>
    <tripinfo id="103" depart="219.00" departLane="-661251539_0" departPos="5.10" departSpeed="0.00" departDelay="0.88" arrival="306.00" arrivalLane="-256961141#1_0" arrivalPos="204.72" arrivalSpeed="9.95" duration="87.00" routeLength="872.91" waitingTime="0.00" waitingCount="0" stopTime="0.00" timeLoss="8.33" rerouteNo="0" devices="tripinfo_103" vType="DEFAULT_VEHTYPE" speedFactor="0.78" vaporized=""/>
    <tripinfo id="115" depart="244.00" departLane="-218680176#1_0" departPos="5.10" departSpeed="0.00" departDelay="0.47" arrival="307.00" arrivalLane="153964138#0_1" arrivalPos="337.99" arrivalSpeed="14.41" duration="63.00" routeLength="462.27" waitingTime="19.00" waitingCount="1" stopTime="0.00" timeLoss="29.59" rerouteNo="0" devices="tripinfo_115" vType="DEFAULT_VEHTYPE" speedFactor="0.91" vaporized=""/>
    <tripinfo id="74" depart="157.00" departLane="-226276377#1_0" departPos="5.10" departSpeed="0.00" departDelay="0.29" arrival="309.00" arrivalLane="210831345#1_0" arrivalPos="264.29" arrivalSpeed="11.13" duration="152.00" routeLength="977.93" waitingTime="60.00" waitingCount="1" stopTime="0.00" timeLoss="75.17" rerouteNo="0" devices="tripinfo_74" vType="DEFAULT_VEHTYPE" speedFactor="0.89" vaporized=""/>
    <tripinfo id="77" depart="164.00" departLane="-226276377#1_0" departPos="5.10" departSpeed="0.00" departDelay="0.94" arrival="310.00" arrivalLane="210831345#1_1" arrivalPos="264.29" arrivalSpeed="13.18" duration="146.00" routeLength="977.93" waitingTime="55.00" waitingCount="1" stopTime="0.00" timeLoss="74.22" rerouteNo="0" devices="tripinfo_77" vType="DEFAULT_VEHTYPE" speedFactor="0.95" vaporized=""/>
    <tripinfo id="128" depart="272.00" departLane="-218680176#1_0" departPos="5.10" departSpeed="0.00" departDelay="0.94" arrival="310.00" arrivalLane="153964138#0_1" arrivalPos="337.99" arrivalSpeed="14.51" duration="38.00" routeLength="462.27" waitingTime="0.00" waitingCount="0" stopTime="0.00" timeLoss="4.75" rerouteNo="0" devices="tripinfo_128" vType="DEFAULT_VEHTYPE" speedFactor="0.91" vaporized=""/>
    <tripinfo id="109" depart="231.00" departLane="-226276377#1_0" departPos="5.10" departSpeed="0.00" departDelay="0.18" arrival="311.00" arrivalLane="210831345#1_0" arrivalPos="264.29" arrivalSpeed="13.93" duration="80.00" routeLength="977.93" waitingTime="0.00" waitingCount="0" stopTime="0.00" timeLoss="14.23" rerouteNo="0" devices="tripinfo_109" vType="DEFAULT_VEHTYPE" speedFactor="1.04" vaporized=""/>
    <tripinfo id="132" depart="280.00" departLane="978867529_0" departPos="5.10" departSpeed="0.00" departDelay="0.47" arrival="313.00" arrivalLane="231177697#0_1" arrivalPos="74.44" arrivalSpeed="13.40" duration="33.00" routeLength="437.06" waitingTime="0.00" waitingCount="0" stopTime="0.00" timeLoss="4.59" rerouteNo="0" devices="tripinfo_132" vType="DEFAULT_VEHTYPE" speedFactor="1.03" vaporized=""/>
    <tripinfo id="44" depart="94.00" departLane="-218680176#1_0" departPos="5.10" departSpeed="0.00" departDelay="0.82" arrival="316.00" arrivalLane="-256961141#1_1" arrivalPos="204.72" arrivalSpeed="12.84" duration="222.00" routeLength="1207.38" waitingTime="112.00" waitingCount="3" stopTime="0.00" timeLoss="134.79" rerouteNo="0" devices="tripinfo_44" vType="DEFAULT_VEHTYPE" speedFactor="0.94" vaporized=""/>
    <tripinfo id="99" depart="210.00" departLane="E8_0" departPos="5.10" departSpeed="0.00" departDelay="0.35" arrival="316.00" arrivalLane="39907424_0" arrivalPos="316.44" arrivalSpeed="12.76" duration="106.00" routeLength="1303.68" waitingTime="0.00" waitingCount="0" stopTime="0.00" timeLoss="12.50" rerouteNo="0" devices="tripinfo_99" vType="DEFAULT_VEHTYPE" speedFactor="0.97" vaporized=""/>
    <tripinfo id="51" depart="108.00" departLane="666135205#0_0" departPos="5.10" departSpeed="0.00" departDelay="0.00" arrival="317.00" arrivalLane="218680176#0_1" arrivalPos="98.94" arrivalSpeed="10.39" duration="209.00" routeLength="693.09" waitingTime="130.00" waitingCount="2" stopTime="0.00" timeLoss="146.68" rerouteNo="0" devices="tripinfo_51" vType="DEFAULT_VEHTYPE" speedFactor="0.82" vaporized=""/>
    <tripinfo id="60" depart="128.00" departLane="666135205#0_0" departPos="5.10" departSpeed="0.00" departDelay="0.94" arrival="319.00" arrivalLane="218680176#0_1" arrivalPos="98.94" arrivalSpeed="13.19" duration="191.00" routeLength="693.09" waitingTime="121.00" waitingCount="2" stopTime="0.00" timeLoss="137.41" rerouteNo="0" devices="tripinfo_60" vType="DEFAULT_VEHTYPE" speedFactor="0.96" vaporized=""/>
    <tripinfo id="70" depart="149.00" departLane="256961141#0_0" departPos="5.10" departSpeed="0.00" departDelay="0.76" arrival="321.00" arrivalLane="218680176#0_1" arrivalPos="98.94" arrivalSpeed="13.05" duration="172.00" routeLength="1207.47" waitingTime="72.00" waitingCount="1" stopTime="0.00" timeLoss="88.59" rerouteNo="0" devices="tripinfo_70" vType="DEFAULT_VEHTYPE" speedFactor="1.02" vaporized=""/>
    <tripinfo id="43" depart="92.00" departLane="E8_0" departPos="5.10" departSpeed="0.00" departDelay="0.94" arrival="322.00" arrivalLane="218680176#0_1" arrivalPos="98.94" arrivalSpeed="14.03" duration="230.00" routeLength="1637.20" waitingTime="101.00" waitingCount="2" stopTime="0.00" timeLoss="125.60" rerouteNo="0" devices="tripinfo_43" vType="DEFAULT_VEHTYPE" speedFactor="1.10" vaporized=""/>
    <tripinfo id="48" depart="102.00" departLane="E8_0" departPos="5.10" departSpeed="0.00" departDelay="0.35" arrival="324.00" arrivalLane="218680176#0_1" arrivalPos="98.94" arrivalSpeed="14.40" duration="222.00" routeLength="1637.20" waitingTime="87.00" waitingCount="2" stopTime="0.00" timeLoss="119.55" rerouteNo="0" devices="tripinfo_48" vType="DEFAULT_VEHTYPE" speedFactor="1.12" vaporized=""/>
    <tripinfo id="38" depart="81.00" departLane="E8_0" departPos="5.10" departSpeed="0.00" departDelay="0.53" arrival="328.00" arrivalLane="218680176#0_1" arrivalPos="98.94" arrivalSpeed="9.74" duration="247.00" routeLength="1637.20" waitingTime="74.00" waitingCount="2" stopTime="0.00" timeLoss="99.58" rerouteNo="0" devices="tripinfo_38" vType="DEFAULT_VEHTYPE" speedFactor="0.78" vaporized=""/>