<?xml version="1.0" encoding="UTF-8"?>

<!-- generated on 2024-09-03 02:40:30 by Eclipse SUMO sumo Version 1.20.0
<configuration xmlns:xsi="http://www.w3.org/2001/XMLSchema-instance" xsi:noNamespaceSchemaLocation="http://sumo.dlr.de/xsd/sumoConfiguration.xsd">

    <input>
        <net-file value="c:\self\School\Master\Disertation\code\RESCO\resco_benchmark\environments/unirii/osm.net.xml.gz"/>
        <route-files value="c:\self\School\Master\Disertation\code\RESCO\resco_benchmark\environments/unirii/osm.passenger.trips.xml"/>
        <additional-files value="c:\self\School\Master\Disertation\code\RESCO\resco_benchmark\environments/unirii/osm.poly.xml.gz"/>
    </input>

    <output>
        <tripinfo-output value="C:\self\School\Master\Disertation\code\RESCO\results\IA2C-tr0-unirii-0-drq_norm-wait_norm\tripinfo_30.xml"/>
        <tripinfo-output.write-unfinished value="true"/>
    </output>

    <processing>
        <ignore-route-errors value="true"/>
        <time-to-teleport value="-1"/>
    </processing>

    <routing>
        <device.rerouting.adaptation-steps value="18"/>
        <device.rerouting.adaptation-interval value="10"/>
    </routing>

    <report>
        <verbose value="true"/>
        <no-warnings value="True"/>
        <duration-log.statistics value="true"/>
        <no-step-log value="True"/>
    </report>

    <traci_server>
        <remote-port value="52146"/>
    </traci_server>

    <random_number>
        <random value="true"/>
    </random_number>

    <gui_only>
        <gui-settings-file value="c:\self\School\Master\Disertation\code\RESCO\resco_benchmark\environments/unirii/osm.view.xml"/>
    </gui_only>

</configuration>
-->

<tripinfos xmlns:xsi="http://www.w3.org/2001/XMLSchema-instance" xsi:noNamespaceSchemaLocation="http://sumo.dlr.de/xsd/tripinfo_file.xsd">
    <tripinfo id="4" depart="9.00" departLane="-661251539_0" departPos="5.10" departSpeed="0.00" departDelay="0.53" arrival="100.00" arrivalLane="-256961141#1_1" arrivalPos="204.72" arrivalSpeed="12.64" duration="91.00" routeLength="872.91" waitingTime="11.00" waitingCount="1" stopTime="0.00" timeLoss="24.03" rerouteNo="0" devices="tripinfo_4" vType="DEFAULT_VEHTYPE" speedFactor="0.92" vaporized=""/>
    <tripinfo id="3" depart="7.00" departLane="E8_0" departPos="5.10" departSpeed="0.00" departDelay="0.65" arrival="121.00" arrivalLane="-256961141#1_0" arrivalPos="204.72" arrivalSpeed="13.69" duration="114.00" routeLength="832.89" waitingTime="43.00" waitingCount="1" stopTime="0.00" timeLoss="53.59" rerouteNo="0" devices="tripinfo_3" vType="DEFAULT_VEHTYPE" speedFactor="1.00" vaporized=""/>
    <tripinfo id="14" depart="30.00" departLane="978867529_0" departPos="5.10" departSpeed="0.00" departDelay="0.35" arrival="129.00" arrivalLane="226276377#0_0" arrivalPos="135.52" arrivalSpeed="13.76" duration="99.00" routeLength="1369.55" waitingTime="0.00" waitingCount="0" stopTime="0.00" timeLoss="10.48" rerouteNo="0" devices="tripinfo_14" vType="DEFAULT_VEHTYPE" speedFactor="1.01" vaporized=""/>
    <tripinfo id="6" depart="13.00" departLane="-218680176#1_0" departPos="5.10" departSpeed="0.00" departDelay="0.29" arrival="130.00" arrivalLane="153964138#0_2" arrivalPos="337.99" arrivalSpeed="15.44" duration="117.00" routeLength="462.27" waitingTime="76.00" waitingCount="1" stopTime="0.00" timeLoss="85.88" rerouteNo="0" devices="tripinfo_6" vType="DEFAULT_VEHTYPE" speedFactor="0.98" vaporized=""/>
    <tripinfo id="18" depart="39.00" departLane="978867529_0" departPos="5.10" departSpeed="0.00" departDelay="0.88" arrival="136.00" arrivalLane="226276377#0_0" arrivalPos="135.52" arrivalSpeed="14.14" duration="97.00" routeLength="1369.55" waitingTime="0.00" waitingCount="0" stopTime="0.00" timeLoss="9.21" rerouteNo="0" devices="tripinfo_18" vType="DEFAULT_VEHTYPE" speedFactor="1.02" vaporized=""/>
    <tripinfo id="35" depart="75.00" departLane="-226276377#1_0" departPos="5.10" departSpeed="0.00" departDelay="0.88" arrival="139.00" arrivalLane="450554042#0_0" arrivalPos="622.66" arrivalSpeed="16.32" duration="64.00" routeLength="763.53" waitingTime="8.00" waitingCount="1" stopTime="0.00" timeLoss="17.59" rerouteNo="0" devices="tripinfo_35" vType="DEFAULT_VEHTYPE" speedFactor="1.03" vaporized=""/>
    <tripinfo id="50" depart="106.00" departLane="-218680176#1_0" departPos="5.10" departSpeed="0.00" departDelay="0.12" arrival="151.00" arrivalLane="231177697#0_0" arrivalPos="74.44" arrivalSpeed="10.72" duration="45.00" routeLength="205.97" waitingTime="14.00" waitingCount="1" stopTime="0.00" timeLoss="27.38" rerouteNo="0" devices="tripinfo_50" vType="DEFAULT_VEHTYPE" speedFactor="0.85" vaporized=""/>
    <tripinfo id="1" depart="3.00" departLane="-231177697#2_0" departPos="5.10" departSpeed="0.00" departDelay="0.88" arrival="156.00" arrivalLane="210831345#1_0" arrivalPos="264.29" arrivalSpeed="12.08" duration="153.00" routeLength="696.92" waitingTime="82.00" waitingCount="1" stopTime="0.00" timeLoss="94.16" rerouteNo="0" devices="tripinfo_1" vType="DEFAULT_VEHTYPE" speedFactor="0.88" vaporized=""/>
    <tripinfo id="21" depart="45.00" departLane="-231177697#2_0" departPos="5.10" departSpeed="0.00" departDelay="0.53" arrival="157.00" arrivalLane="210831345#1_1" arrivalPos="264.29" arrivalSpeed="12.94" duration="112.00" routeLength="696.92" waitingTime="47.00" waitingCount="1" stopTime="0.00" timeLoss="59.00" rerouteNo="0" devices="tripinfo_21" vType="DEFAULT_VEHTYPE" speedFactor="0.97" vaporized=""/>
    <tripinfo id="34" depart="72.00" departLane="-231177697#2_0" departPos="5.10" departSpeed="0.00" departDelay="0.00" arrival="161.00" arrivalLane="210831345#1_1" arrivalPos="264.29" arrivalSpeed="14.03" duration="89.00" routeLength="696.92" waitingTime="25.00" waitingCount="1" stopTime="0.00" timeLoss="38.79" rerouteNo="0" devices="tripinfo_34" vType="DEFAULT_VEHTYPE" speedFactor="1.03" vaporized=""/>
    <tripinfo id="68" depart="144.00" departLane="-218680176#1_0" departPos="5.10" departSpeed="0.00" departDelay="0.00" arrival="163.00" arrivalLane="231177697#0_0" arrivalPos="74.44" arrivalSpeed="13.38" duration="19.00" routeLength="205.97" waitingTime="0.00" waitingCount="0" stopTime="0.00" timeLoss="3.54" rerouteNo="0" devices="tripinfo_68" vType="DEFAULT_VEHTYPE" speedFactor="0.99" vaporized=""/>
    <tripinfo id="39" depart="83.00" departLane="-231177697#2_0" departPos="5.10" departSpeed="0.00" departDelay="0.41" arrival="165.00" arrivalLane="210831345#1_1" arrivalPos="264.29" arrivalSpeed="12.21" duration="82.00" routeLength="696.92" waitingTime="15.00" waitingCount="1" stopTime="0.00" timeLoss="28.72" rerouteNo="0" devices="tripinfo_39" vType="DEFAULT_VEHTYPE" speedFactor="0.96" vaporized=""/>
    <tripinfo id="19" depart="42.00" departLane="978867529_0" departPos="5.10" departSpeed="0.00" departDelay="1.76" arrival="167.00" arrivalLane="226276377#0_0" arrivalPos="135.52" arrivalSpeed="11.95" duration="125.00" routeLength="1369.55" waitingTime="16.00" waitingCount="1" stopTime="0.00" timeLoss="30.18" rerouteNo="0" devices="tripinfo_19" vType="DEFAULT_VEHTYPE" speedFactor="0.95" vaporized=""/>
    <tripinfo id="12" depart="26.00" departLane="E8_0" departPos="5.10" departSpeed="0.00" departDelay="0.59" arrival="197.00" arrivalLane="210831347#0_1" arrivalPos="149.88" arrivalSpeed="10.01" duration="171.00" routeLength="1367.17" waitingTime="35.00" waitingCount="2" stopTime="0.00" timeLoss="54.05" rerouteNo="0" devices="tripinfo_12" vType="DEFAULT_VEHTYPE" speedFactor="0.81" vaporized=""/>
    <tripinfo id="22" depart="47.00" departLane="-218680176#1_0" departPos="5.10" departSpeed="0.00" departDelay="0.41" arrival="202.00" arrivalLane="210831345#1_1" arrivalPos="264.29" arrivalSpeed="13.67" duration="155.00" routeLength="699.94" waitingTime="91.00" waitingCount="2" stopTime="0.00" timeLoss="106.08" rerouteNo="0" devices="tripinfo_22" vType="DEFAULT_VEHTYPE" speedFactor="1.05" vaporized=""/>
    <tripinfo id="23" depart="50.00" departLane="-218680176#1_0" departPos="5.10" departSpeed="0.00" departDelay="1.29" arrival="205.00" arrivalLane="210831345#1_1" arrivalPos="264.29" arrivalSpeed="12.56" duration="155.00" routeLength="699.94" waitingTime="87.00" waitingCount="2" stopTime="0.00" timeLoss="103.05" rerouteNo="0" devices="tripinfo_23" vType="DEFAULT_VEHTYPE" speedFactor="0.99" vaporized=""/>
    <tripinfo id="79" depart="168.00" departLane="-231177697#2_0" departPos="5.10" departSpeed="0.00" departDelay="0.71" arrival="205.00" arrivalLane="153964138#0_0" arrivalPos="337.99" arrivalSpeed="13.38" duration="37.00" routeLength="417.38" waitingTime="0.00" waitingCount="0" stopTime="0.00" timeLoss="6.06" rerouteNo="0" devices="tripinfo_79" vType="DEFAULT_VEHTYPE" speedFactor="0.87" vaporized=""/>
    <tripinfo id="49" depart="105.00" departLane="E8_0" departPos="5.10" departSpeed="0.00" departDelay="1.24" arrival="207.00" arrivalLane="39907424_0" arrivalPos="316.44" arrivalSpeed="12.66" duration="102.00" routeLength="1303.68" waitingTime="0.00" waitingCount="0" stopTime="0.00" timeLoss="11.64" rerouteNo="0" devices="tripinfo_49" vType="DEFAULT_VEHTYPE" speedFactor="1.00" vaporized=""/>
    <tripinfo id="10" depart="23.00" departLane="978867529_0" departPos="5.10" departSpeed="0.00" departDelay="1.82" arrival="213.00" arrivalLane="231177697#0_1" arrivalPos="74.44" arrivalSpeed="13.40" duration="190.00" routeLength="437.06" waitingTime="155.00" waitingCount="1" stopTime="0.00" timeLoss="162.19" rerouteNo="0" devices="tripinfo_10" vType="DEFAULT_VEHTYPE" speedFactor="1.05" vaporized=""/>
    <tripinfo id="62" depart="132.00" departLane="-218680176#1_0" departPos="5.10" departSpeed="0.00" departDelay="0.71" arrival="213.00" arrivalLane="210831345#1_0" arrivalPos="264.29" arrivalSpeed="10.38" duration="81.00" routeLength="699.94" waitingTime="3.00" waitingCount="1" stopTime="0.00" timeLoss="15.42" rerouteNo="0" devices="tripinfo_62" vType="DEFAULT_VEHTYPE" speedFactor="0.79" vaporized=""/>
    <tripinfo id="7" depart="15.00" departLane="65746828#0_0" departPos="5.10" departSpeed="0.00" departDelay="0.18" arrival="215.00" arrivalLane="218680176#0_1" arrivalPos="98.94" arrivalSpeed="13.93" duration="200.00" routeLength="602.71" waitingTime="141.00" waitingCount="2" stopTime="0.00" timeLoss="157.11" rerouteNo="0" devices="tripinfo_7" vType="DEFAULT_VEHTYPE" speedFactor="1.05" vaporized=""/>
    <tripinfo id="15" depart="33.00" departLane="978867529_0" departPos="5.10" departSpeed="0.00" departDelay="1.24" arrival="215.00" arrivalLane="231177697#0_1" arrivalPos="74.44" arrivalSpeed="15.07" duration="182.00" routeLength="437.06" waitingTime="144.00" waitingCount="1" stopTime="0.00" timeLoss="155.28" rerouteNo="0" devices="tripinfo_15" vType="DEFAULT_VEHTYPE" speedFactor="1.09" vaporized=""/>
    <tripinfo id="32" depart="68.00" departLane="978867529_0" departPos="5.10" departSpeed="0.00" departDelay="0.24" arrival="218.00" arrivalLane="231177697#0_1" arrivalPos="74.44" arrivalSpeed="10.71" duration="150.00" routeLength="437.06" waitingTime="108.00" waitingCount="1" stopTime="0.00" timeLoss="116.41" rerouteNo="0" devices="tripinfo_32" vType="DEFAULT_VEHTYPE" speedFactor="0.85" vaporized=""/>
    <tripinfo id="17" depart="36.00" departLane="-661251539_0" departPos="5.10" departSpeed="0.00" departDelay="0.00" arrival="219.00" arrivalLane="218680176#0_1" arrivalPos="98.94" arrivalSpeed="11.91" duration="183.00" routeLength="1001.21" waitingTime="90.00" waitingCount="1" stopTime="0.00" timeLoss="103.14" rerouteNo="0" devices="tripinfo_17" vType="DEFAULT_VEHTYPE" speedFactor="0.92" vaporized=""/>
    <tripinfo id="16" depart="34.00" departLane="256961141#0_0" departPos="5.10" departSpeed="0.00" departDelay="0.12" arrival="220.00" arrivalLane="450554042#0_1" arrivalPos="622.66" arrivalSpeed="16.52" duration="186.00" routeLength="853.74" waitingTime="123.00" waitingCount="1" stopTime="0.00" timeLoss="134.23" rerouteNo="0" devices="tripinfo_16" vType="DEFAULT_VEHTYPE" speedFactor="1.07" vaporized=""/>
    <tripinfo id="57" depart="121.00" departLane="E8_0" departPos="5.10" departSpeed="0.00" departDelay="0.29" arrival="225.00" arrivalLane="39907424_0" arrivalPos="316.44" arrivalSpeed="13.15" duration="104.00" routeLength="1303.68" waitingTime="0.00" waitingCount="0" stopTime="0.00" timeLoss="11.06" rerouteNo="0" devices="tripinfo_57" vType="DEFAULT_VEHTYPE" speedFactor="0.97" vaporized=""/>
    <tripinfo id="78" depart="166.00" departLane="-661251539_0" departPos="5.10" departSpeed="0.00" departDelay="0.82" arrival="226.00" arrivalLane="226276377#0_0" arrivalPos="135.52" arrivalSpeed="15.19" duration="60.00" routeLength="783.10" waitingTime="0.00" waitingCount="0" stopTime="0.00" timeLoss="10.43" rerouteNo="0" devices="tripinfo_78" vType="DEFAULT_VEHTYPE" speedFactor="1.12" vaporized=""/>
    <tripinfo id="54" depart="115.00" departLane="256961141#0_0" departPos="5.10" departSpeed="0.00" departDelay="0.65" arrival="227.00" arrivalLane="450554042#0_0" arrivalPos="622.66" arrivalSpeed="15.01" duration="112.00" routeLength="853.74" waitingTime="43.00" waitingCount="1" stopTime="0.00" timeLoss="52.86" rerouteNo="0" devices="tripinfo_54" vType="DEFAULT_VEHTYPE" speedFactor="0.92" vaporized=""/>
    <tripinfo id="51" depart="108.00" departLane="666135205#0_0" departPos="5.10" departSpeed="0.00" departDelay="0.00" arrival="239.00" arrivalLane="218680176#0_1" arrivalPos="98.94" arrivalSpeed="13.99" duration="131.00" routeLength="693.09" waitingTime="64.00" waitingCount="3" stopTime="0.00" timeLoss="81.60" rerouteNo="0" devices="tripinfo_51" vType="DEFAULT_VEHTYPE" speedFactor="1.04" vaporized=""/>
    <tripinfo id="47" depart="100.00" departLane="-218680176#1_0" departPos="5.10" departSpeed="0.00" departDelay="0.47" arrival="243.00" arrivalLane="210831347#0_0" arrivalPos="149.88" arrivalSpeed="17.50" duration="143.00" routeLength="560.58" waitingTime="86.00" waitingCount="2" stopTime="0.00" timeLoss="110.50" rerouteNo="0" devices="tripinfo_47" vType="DEFAULT_VEHTYPE" speedFactor="1.29" vaporized=""/>
    <tripinfo id="88" depart="187.00" departLane="-218680176#1_0" departPos="5.10" departSpeed="0.00" departDelay="0.65" arrival="249.00" arrivalLane="210831347#0_0" arrivalPos="149.88" arrivalSpeed="12.67" duration="62.00" routeLength="560.58" waitingTime="3.00" waitingCount="1" stopTime="0.00" timeLoss="16.45" rerouteNo="0" devices="tripinfo_88" vType="DEFAULT_VEHTYPE" speedFactor="0.93" vaporized=""/>
    <tripinfo id="74" depart="157.00" departLane="-226276377#1_0" departPos="5.10" departSpeed="0.00" departDelay="0.29" arrival="259.00" arrivalLane="210831345#1_0" arrivalPos="264.29" arrivalSpeed="15.25" duration="102.00" routeLength="977.93" waitingTime="18.00" waitingCount="2" stopTime="0.00" timeLoss="42.74" rerouteNo="0" devices="tripinfo_74" vType="DEFAULT_VEHTYPE" speedFactor="1.15" vaporized=""/>
    <tripinfo id="38" depart="81.00" departLane="E8_0" departPos="5.10" departSpeed="0.00" departDelay="0.53" arrival="265.00" arrivalLane="218680176#0_1" arrivalPos="98.94" arrivalSpeed="13.61" duration="184.00" routeLength="1637.20" waitingTime="52.00" waitingCount="2" stopTime="0.00" timeLoss="72.96" rerouteNo="0" devices="tripinfo_38" vType="DEFAULT_VEHTYPE" speedFactor="1.04" vaporized=""/>
    <tripinfo id="95" depart="202.00" departLane="-661251539_0" departPos="5.10" departSpeed="0.00" departDelay="0.82" arrival="265.00" arrivalLane="210831345#1_1" arrivalPos="264.29" arrivalSpeed="15.11" duration="63.00" routeLength="826.64" waitingTime="0.00" waitingCount="0" stopTime="0.00" timeLoss="11.09" rerouteNo="0" devices="tripinfo_95" vType="DEFAULT_VEHTYPE" speedFactor="1.17" vaporized=""/>
    <tripinfo id="77" depart="164.00" departLane="-226276377#1_0" departPos="5.10" departSpeed="0.00" departDelay="0.94" arrival="266.00" arrivalLane="210831345#1_0" arrivalPos="264.29" arrivalSpeed="12.50" duration="102.00" routeLength="977.93" waitingTime="5.00" waitingCount="1" stopTime="0.00" timeLoss="27.56" rerouteNo="0" devices="tripinfo_77" vType="DEFAULT_VEHTYPE" speedFactor="0.92" vaporized=""/>
    <tripinfo id="30" depart="64.00" departLane="E8_0" departPos="5.10" departSpeed="0.00" departDelay="0.47" arrival="268.00" arrivalLane="226276377#0_1" arrivalPos="135.52" arrivalSpeed="13.06" duration="204.00" routeLength="784.51" waitingTime="137.00" waitingCount="1" stopTime="0.00" timeLoss="147.65" rerouteNo="0" devices="tripinfo_30" vType="DEFAULT_VEHTYPE" speedFactor="1.01" vaporized=""/>
    <tripinfo id="43" depart="92.00" departLane="E8_0" departPos="5.10" departSpeed="0.00" departDelay="0.94" arrival="269.00" arrivalLane="218680176#0_1" arrivalPos="98.94" arrivalSpeed="13.44" duration="177.00" routeLength="1637.20" waitingTime="36.00" waitingCount="2" stopTime="0.00" timeLoss="58.71" rerouteNo="0" devices="tripinfo_43" vType="DEFAULT_VEHTYPE" speedFactor="0.97" vaporized=""/>
    <tripinfo id="75" depart="159.00" departLane="E8_0" departPos="5.10" departSpeed="0.00" departDelay="0.18" arrival="272.00" arrivalLane="226276377#0_1" arrivalPos="135.52" arrivalSpeed="11.33" duration="113.00" routeLength="784.51" waitingTime="34.00" waitingCount="1" stopTime="0.00" timeLoss="44.65" rerouteNo="0" devices="tripinfo_75" vType="DEFAULT_VEHTYPE" speedFactor="0.83" vaporized=""/>
    <tripinfo id="20" depart="43.00" departLane="666135205#0_0" departPos="5.10" departSpeed="0.00" departDelay="0.65" arrival="274.00" arrivalLane="-256961141#1_1" arrivalPos="204.72" arrivalSpeed="12.55" duration="231.00" routeLength="1068.72" waitingTime="145.00" waitingCount="1" stopTime="0.00" timeLoss="155.31" rerouteNo="0" devices="tripinfo_20" vType="DEFAULT_VEHTYPE" speedFactor="0.95" vaporized=""/>
    <tripinfo id="48" depart="102.00" departLane="E8_0" departPos="5.10" departSpeed="0.00" departDelay="0.35" arrival="274.00" arrivalLane="218680176#0_1" arrivalPos="98.94" arrivalSpeed="11.85" duration="172.00" routeLength="1637.20" waitingTime="22.00" waitingCount="1" stopTime="0.00" timeLoss="38.36" rerouteNo="0" devices="tripinfo_48" vType="DEFAULT_VEHTYPE" speedFactor="0.86" vaporized=""/>
    <tripinfo id="85" depart="180.00" departLane="E8_0" departPos="5.10" departSpeed="0.00" departDelay="0.00" arrival="274.00" arrivalLane="226276377#0_1" arrivalPos="135.52" arrivalSpeed="11.64" duration="94.00" routeLength="784.51" waitingTime="18.00" waitingCount="1" stopTime="0.00" timeLoss="30.28" rerouteNo="0" devices="tripinfo_85" vType="DEFAULT_VEHTYPE" speedFactor="0.90" vaporized=""/>
    <tripinfo id="5" depart="11.00" departLane="-226276377#1_0" departPos="5.10" departSpeed="0.00" departDelay="0.41" arrival="276.00" arrivalLane="218680176#0_1" arrivalPos="98.94" arrivalSpeed="11.95" duration="265.00" routeLength="1158.55" waitingTime="153.00" waitingCount="2" stopTime="0.00" timeLoss="177.69" rerouteNo="0" devices="tripinfo_5" vType="DEFAULT_VEHTYPE" speedFactor="0.93" vaporized=""/>
    <tripinfo id="13" depart="28.00" departLane="-218680176#1_0" departPos="5.10" departSpeed="0.00" departDelay="0.47" arrival="276.00" arrivalLane="-256961141#1_1" arrivalPos="204.72" arrivalSpeed="13.56" duration="248.00" routeLength="1207.38" waitingTime="142.00" waitingCount="3" stopTime="0.00" timeLoss="168.11" rerouteNo="0" devices="tripinfo_13" vType="DEFAULT_VEHTYPE" speedFactor="1.03" vaporized=""/>
    <tripinfo id="76" depart="161.00" departLane="-661251539_0" departPos="5.10" departSpeed="0.00" departDelay="0.06" arrival="277.00" arrivalLane="218680176#0_1" arrivalPos="98.94" arrivalSpeed="13.42" duration="116.00" routeLength="1001.21" waitingTime="21.00" waitingCount="1" stopTime="0.00" timeLoss="46.51" rerouteNo="0" devices="tripinfo_76" vType="DEFAULT_VEHTYPE" speedFactor="1.05" vaporized=""/>
    <tripinfo id="9" depart="20.00" departLane="978867529_0" departPos="5.10" departSpeed="0.00" departDelay="0.94" arrival="278.00" arrivalLane="-256961141#1_1" arrivalPos="204.72" arrivalSpeed="14.23" duration="258.00" routeLength="1459.36" waitingTime="138.00" waitingCount="2" stopTime="0.00" timeLoss="165.79" rerouteNo="0" devices="tripinfo_9" vType="DEFAULT_VEHTYPE" speedFactor="1.05" vaporized=""/>
    <tripinfo id="0" depart="0.00" departLane="65746828#0_0" departPos="5.10" departSpeed="0.00" departDelay="0.00" arrival="279.00" arrivalLane="-256961141#1_1" arrivalPos="204.72" arrivalSpeed="15.12" duration="279.00" routeLength="931.50" waitingTime="200.00" waitingCount="2" stopTime="0.00" timeLoss="224.83" rerouteNo="0" devices="tripinfo_0" vType="DEFAULT_VEHTYPE" speedFactor="1.14" vaporized=""/>
    <tripinfo id="89" depart="189.00" departLane="-661251539_0" departPos="5.10" departSpeed="0.00" departDelay="0.53" arrival="279.00" arrivalLane="218680176#0_1" arrivalPos="98.94" arrivalSpeed="13.66" duration="90.00" routeLength="1001.21" waitingTime="2.00" waitingCount="1" stopTime="0.00" timeLoss="19.37" rerouteNo="0" devices="tripinfo_89" vType="DEFAULT_VEHTYPE" speedFactor="1.04" vaporized=""/>
    <tripinfo id="103" depart="219.00" departLane="-661251539_0" departPos="5.10" departSpeed="0.00" departDelay="0.88" arrival="281.00" arrivalLane="-256961141#1_1" arrivalPos="204.72" arrivalSpeed="14.56" duration="62.00" routeLength="872.91" waitingTime="0.00" waitingCount="0" stopTime="0.00" timeLoss="7.42" rerouteNo="0" devices="tripinfo_103" vType="DEFAULT_VEHTYPE" speedFactor="1.11" vaporized=""/>
    <tripinfo id="86" depart="183.00" departLane="256961141#0_0" departPos="5.10" departSpeed="0.00" departDelay="0.88" arrival="287.00" arrivalLane="39907424_0" arrivalPos="316.44" arrivalSpeed="12.64" duration="104.00" routeLength="873.95" waitingTime="26.00" waitingCount="1" stopTime="0.00" timeLoss="41.49" rerouteNo="0" devices="tripinfo_86" vType="DEFAULT_VEHTYPE" speedFactor="0.97" vaporized=""/>
    <tripinfo id="31" depart="66.00" departLane="65746828#0_0" departPos="5.10" departSpeed="0.00" departDelay="0.35" arrival="289.00" arrivalLane="231177697#0_0" arrivalPos="74.44" arrivalSpeed="13.53" duration="223.00" routeLength="558.79" waitingTime="167.00" waitingCount="2" stopTime="0.00" timeLoss="183.30" rerouteNo="0" devices="tripinfo_31" vType="DEFAULT_VEHTYPE" speedFactor="1.05" vaporized=""/>
    <tripinfo id="61" depart="130.00" departLane="978867529_0" departPos="5.10" departSpeed="0.00" departDelay="0.82" arrival="291.00" arrivalLane="218680176#0_0" arrivalPos="98.94" arrivalSpeed="13.50" duration="161.00" routeLength="442.15" waitingTime="121.00" waitingCount="1" stopTime="0.00" timeLoss="131.05" rerouteNo="0" devices="tripinfo_61" vType="DEFAULT_VEHTYPE" speedFactor="0.98" vaporized=""/>
    <tripinfo id="2" depart="5.00" departLane="666135205#0_0" departPos="5.10" departSpeed="0.00" departDelay="0.76" arrival="292.00" arrivalLane="231177697#0_0" arrivalPos="74.44" arrivalSpeed="12.78" duration="287.00" routeLength="649.17" waitingTime="219.00" waitingCount="2" stopTime="0.00" timeLoss="237.20" rerouteNo="0" devices="tripinfo_2" vType="DEFAULT_VEHTYPE" speedFactor="0.97" vaporized=""/>
    <tripinfo id="28" depart="60.00" departLane="-226276377#1_0" departPos="5.10" departSpeed="0.00" departDelay="0.71" arrival="295.00" arrivalLane="231177697#0_0" arrivalPos="74.44" arrivalSpeed="13.00" duration="235.00" routeLength="1114.63" waitingTime="126.00" waitingCount="3" stopTime="0.00" timeLoss="158.56" rerouteNo="0" devices="tripinfo_28" vType="DEFAULT_VEHTYPE" speedFactor="1.02" vaporized=""/>
    <tripinfo id="108" depart="229.00" departLane="65746828#0_0" departPos="5.10" departSpeed="0.00" departDelay="0.29" arrival="297.00" arrivalLane="231177697#0_0" arrivalPos="74.44" arrivalSpeed="14.08" duration="68.00" routeLength="558.79" waitingTime="9.00" waitingCount="2" stopTime="0.00" timeLoss="27.03" rerouteNo="0" devices="tripinfo_108" vType="DEFAULT_VEHTYPE" speedFactor="1.02" vaporized=""/>
    <tripinfo id="116" depart="246.00" departLane="65746828#0_0" departPos="5.10" departSpeed="0.00" departDelay="0.35" arrival="299.00" arrivalLane="231177697#0_0" arrivalPos="74.44" arrivalSpeed="15.65" duration="53.00" routeLength="558.79" waitingTime="1.00" waitingCount="1" stopTime="0.00" timeLoss="16.26" rerouteNo="0" devices="tripinfo_116" vType="DEFAULT_VEHTYPE" speedFactor="1.15" vaporized=""/>
    <tripinfo id="11" depart="24.00" departLane="-661251539_0" departPos="5.10" departSpeed="0.00" departDelay="0.71" arrival="301.00" arrivalLane="153964138#0_1" arrivalPos="337.99" arrivalSpeed="18.57" duration="277.00" routeLength="1239.04" waitingTime="181.00" waitingCount="2" stopTime="0.00" timeLoss="202.52" rerouteNo="0" devices="tripinfo_11" vType="DEFAULT_VEHTYPE" speedFactor="1.15" vaporized=""/>
    <tripinfo id="117" depart="248.00" departLane="-231177697#2_0" departPos="5.10" departSpeed="0.00" departDelay="0.24" arrival="303.00" arrivalLane="153964138#0_0" arrivalPos="337.99" arrivalSpeed="13.38" duration="55.00" routeLength="417.38" waitingTime="14.00" waitingCount="1" stopTime="0.00" timeLoss="21.86" rerouteNo="0" devices="tripinfo_117" vType="DEFAULT_VEHTYPE" speedFactor="0.83" vaporized=""/>
    <tripinfo id="42" depart="89.00" departLane="-661251539_0" departPos="5.10" departSpeed="0.00" departDelay="0.06" arrival="304.00" arrivalLane="153964138#0_1" arrivalPos="337.99" arrivalSpeed="16.22" duration="215.00" routeLength="1239.04" waitingTime="108.00" waitingCount="2" stopTime="0.00" timeLoss="128.28" rerouteNo="0" devices="tripinfo_42" vType="DEFAULT_VEHTYPE" speedFactor="0.99" vaporized=""/>
    <tripinfo id="59" depart="125.00" departLane="65746828#0_0" departPos="5.10" departSpeed="0.00" departDelay="0.06" arrival="305.00" arrivalLane="153964138#0_1" arrivalPos="337.99" arrivalSpeed="15.18" duration="180.00" routeLength="834.49" waitingTime="103.00" waitingCount="2" stopTime="0.00" timeLoss="119.42" rerouteNo="0" devices="tripinfo_59" vType="DEFAULT_VEHTYPE" speedFactor="0.93" vaporized=""/>
    <tripinfo id="72" depart="153.00" departLane="-661251539_0" departPos="5.10" departSpeed="0.00" departDelay="0.53" arrival="305.00" arrivalLane="153964138#0_2" arrivalPos="337.99" arrivalSpeed="17.35" duration="152.00" routeLength="1239.04" waitingTime="43.00" waitingCount="3" stopTime="0.00" timeLoss="70.53" rerouteNo="0" devices="tripinfo_72" vType="DEFAULT_VEHTYPE" speedFactor="1.05" vaporized=""/>
    <tripinfo id="25" depart="53.00" departLane="-661251539_0" departPos="5.10" departSpeed="0.00" departDelay="0.06" arrival="307.00" arrivalLane="153964138#0_1" arrivalPos="337.99" arrivalSpeed="16.29" duration="254.00" routeLength="1239.04" waitingTime="144.00" waitingCount="3" stopTime="0.00" timeLoss="166.75" rerouteNo="0" devices="tripinfo_25" vType="DEFAULT_VEHTYPE" speedFactor="0.98" vaporized=""/>
    <tripinfo id="84" depart="178.00" departLane="-226276377#1_0" departPos="5.10" departSpeed="0.00" departDelay="0.12" arrival="311.00" arrivalLane="153964138#0_1" arrivalPos="337.99" arrivalSpeed="13.66" duration="133.00" routeLength="1390.33" waitingTime="8.00" waitingCount="1" stopTime="0.00" timeLoss="23.68" rerouteNo="0" devices="tripinfo_84" vType="DEFAULT_VEHTYPE" speedFactor="0.85" vaporized=""/>
    <tripinfo id="56" depart="119.00" departLane="256961141#0_0" departPos="5.10" departSpeed="0.00" departDelay="0.41" arrival="312.00" arrivalLane="153964138#0_0" arrivalPos="337.99" arrivalSpeed="13.49" duration="193.00" routeLength="1439.25" waitingTime="56.00" waitingCount="2" stopTime="0.00" timeLoss="77.31" rerouteNo="0" devices="tripinfo_56" vType="DEFAULT_VEHTYPE" speedFactor="0.84" vaporized=""/>
    <tripinfo id="110" depart="233.00" departLane="E8_0" departPos="5.10" departSpeed="0.00" departDelay="0.06" arrival="319.00" arrivalLane="226276377#0_1" arrivalPos="135.52" arrivalSpeed="11.84" duration="86.00" routeLength="784.51" waitingTime="13.00" waitingCount="1" stopTime="0.00" timeLoss="24.68" rerouteNo="0" devices="tripinfo_110" vType="DEFAULT_VEHTYPE" speedFactor="0.93" vaporized=""/>
    <tripinfo id="114" depart="242.00" departLane="-226276377#1_0" departPos="5.10" departSpeed="0.00" departDelay="0.59" arrival="319.00" arrivalLane="450554042#0_0" arrivalPos="622.66" arrivalSpeed="14.64" duration="77.00" routeLength="763.53" waitingTime="14.00" waitingCount="1" stopTime="0.00" timeLoss="23.88" rerouteNo="0" devices="tripinfo_114" vType="DEFAULT_VEHTYPE" speedFactor="0.91" vaporized=""/>
    <tripinfo id="121" depart="257.00" departLane="256961141#0_0" departPos="5.10" departSpeed="0.00" departDelay="0.76" arrival="319.00" arrivalLane="450554042#0_1" arrivalPos="622.66" arrivalSpeed="16.97" duration="62.00" routeLength="853.74" waitingTime="0.00" waitingCount="0" stopTime="0.00" timeLoss="10.90" rerouteNo="0" devices="tripinfo_121" vType="DEFAULT_VEHTYPE" speedFactor="1.08" vaporized=""/>
    <tripinfo id="33" depart="70.00" departLane="-231177697#2_0" departPos="5.10" departSpeed="0.00" departDelay="0.12" arrival="327.00" arrivalLane="-256961141#1_1" arrivalPos="204.72" arrivalSpeed="10.56" duration="257.00" routeLength="1204.36" waitingTime="138.00" waitingCount="3" stopTime="0.00" timeLoss="159.74" rerouteNo="0" devices="tripinfo_33" vType="DEFAULT_VEHTYPE" speedFactor="0.84" vaporized=""/>
    <tripinfo id="44" depart="94.00" departLane="-218680176#1_0" departPos="5.10" departSpeed="0.00" departDelay="0.82" arrival="328.00" arrivalLane="-256961141#1_1" arrivalPos="204.72" arrivalSpeed="12.92" duration="234.00" routeLength="1207.38" waitingTime="118.00" waitingCount="3" stopTime="0.00" timeLoss="151.17" rerouteNo="0" devices="tripinfo_44" vType="DEFAULT_VEHTYPE" speedFactor="0.98" vaporized=""/>
    <tripinfo id="145" depart="308.00" departLane="-218680176#1_0" departPos="5.10" departSpeed="0.00" departDelay="0.94" arrival="338.00" arrivalLane="231177697#0_0" arrivalPos="74.44" arrivalSpeed="15.14" duration="30.00" routeLength="205.97" waitingTime="6.00" waitingCount="1" stopTime="0.00" timeLoss="16.81" rerouteNo="0" devices="tripinfo_145" vType="DEFAULT_VEHTYPE" speedFactor="1.16" vaporized=""/>