<?xml version="1.0" encoding="UTF-8"?>

<!-- generated on 2024-09-03 02:35:39 by Eclipse SUMO sumo Version 1.20.0
<configuration xmlns:xsi="http://www.w3.org/2001/XMLSchema-instance" xsi:noNamespaceSchemaLocation="http://sumo.dlr.de/xsd/sumoConfiguration.xsd">

    <input>
        <net-file value="c:\self\School\Master\Disertation\code\RESCO\resco_benchmark\environments/unirii/osm.net.xml.gz"/>
        <route-files value="c:\self\School\Master\Disertation\code\RESCO\resco_benchmark\environments/unirii/osm.passenger.trips.xml"/>
        <additional-files value="c:\self\School\Master\Disertation\code\RESCO\resco_benchmark\environments/unirii/osm.poly.xml.gz"/>
    </input>

    <output>
        <tripinfo-output value="C:\self\School\Master\Disertation\code\RESCO\results\IA2C-tr0-unirii-0-drq_norm-wait_norm\tripinfo_1.xml"/>
        <tripinfo-output.write-unfinished value="true"/>
    </output>

    <processing>
        <ignore-route-errors value="true"/>
        <time-to-teleport value="-1"/>
    </processing>

    <routing>
        <device.rerouting.adaptation-steps value="18"/>
        <device.rerouting.adaptation-interval value="10"/>
    </routing>

    <report>
        <verbose value="true"/>
        <no-warnings value="True"/>
        <duration-log.statistics value="true"/>
        <no-step-log value="True"/>
    </report>

    <traci_server>
        <remote-port value="51802"/>
    </traci_server>

    <random_number>
        <random value="true"/>
    </random_number>

    <gui_only>
        <gui-settings-file value="c:\self\School\Master\Disertation\code\RESCO\resco_benchmark\environments/unirii/osm.view.xml"/>
    </gui_only>

</configuration>
-->

<tripinfos xmlns:xsi="http://www.w3.org/2001/XMLSchema-instance" xsi:noNamespaceSchemaLocation="http://sumo.dlr.de/xsd/tripinfo_file.xsd">
    <tripinfo id="4" depart="9.00" departLane="-661251539_0" departPos="5.10" departSpeed="0.00" departDelay="0.53" arrival="75.00" arrivalLane="-256961141#1_1" arrivalPos="204.72" arrivalSpeed="14.41" duration="66.00" routeLength="872.91" waitingTime="0.00" waitingCount="0" stopTime="0.00" timeLoss="7.56" rerouteNo="0" devices="tripinfo_4" vType="DEFAULT_VEHTYPE" speedFactor="1.04" vaporized=""/>
    <tripinfo id="6" depart="13.00" departLane="-218680176#1_0" departPos="5.10" departSpeed="0.00" departDelay="0.29" arrival="78.00" arrivalLane="153964138#0_2" arrivalPos="337.99" arrivalSpeed="17.37" duration="65.00" routeLength="462.27" waitingTime="27.00" waitingCount="1" stopTime="0.00" timeLoss="36.88" rerouteNo="0" devices="tripinfo_6" vType="DEFAULT_VEHTYPE" speedFactor="1.07" vaporized=""/>
    <tripinfo id="0" depart="0.00" departLane="65746828#0_0" departPos="5.10" departSpeed="0.00" departDelay="0.00" arrival="86.00" arrivalLane="-256961141#1_1" arrivalPos="204.72" arrivalSpeed="12.61" duration="86.00" routeLength="931.50" waitingTime="11.00" waitingCount="1" stopTime="0.00" timeLoss="21.97" rerouteNo="0" devices="tripinfo_0" vType="DEFAULT_VEHTYPE" speedFactor="0.98" vaporized=""/>
    <tripinfo id="10" depart="23.00" departLane="978867529_0" departPos="5.10" departSpeed="0.00" departDelay="1.82" arrival="113.00" arrivalLane="231177697#0_1" arrivalPos="74.44" arrivalSpeed="16.09" duration="90.00" routeLength="437.06" waitingTime="53.00" waitingCount="1" stopTime="0.00" timeLoss="65.50" rerouteNo="0" devices="tripinfo_10" vType="DEFAULT_VEHTYPE" speedFactor="1.17" vaporized=""/>
    <tripinfo id="15" depart="32.00" departLane="978867529_0" departPos="5.10" departSpeed="0.00" departDelay="0.24" arrival="116.00" arrivalLane="231177697#0_1" arrivalPos="74.44" arrivalSpeed="13.01" duration="84.00" routeLength="437.06" waitingTime="42.00" waitingCount="1" stopTime="0.00" timeLoss="53.86" rerouteNo="0" devices="tripinfo_15" vType="DEFAULT_VEHTYPE" speedFactor="0.95" vaporized=""/>
    <tripinfo id="17" depart="36.00" departLane="-661251539_0" departPos="5.10" departSpeed="0.00" departDelay="0.00" arrival="117.00" arrivalLane="218680176#0_1" arrivalPos="98.94" arrivalSpeed="13.84" duration="81.00" routeLength="1001.21" waitingTime="0.00" waitingCount="0" stopTime="0.00" timeLoss="8.56" rerouteNo="0" devices="tripinfo_17" vType="DEFAULT_VEHTYPE" speedFactor="1.02" vaporized=""/>
    <tripinfo id="32" depart="68.00" departLane="978867529_0" departPos="5.10" departSpeed="0.00" departDelay="0.24" arrival="118.00" arrivalLane="231177697#0_1" arrivalPos="74.44" arrivalSpeed="12.31" duration="50.00" routeLength="437.06" waitingTime="9.00" waitingCount="1" stopTime="0.00" timeLoss="20.74" rerouteNo="0" devices="tripinfo_32" vType="DEFAULT_VEHTYPE" speedFactor="0.98" vaporized=""/>
    <tripinfo id="27" depart="58.00" departLane="65746828#0_0" departPos="5.10" departSpeed="0.00" departDelay="0.82" arrival="121.00" arrivalLane="226276377#0_0" arrivalPos="135.52" arrivalSpeed="13.57" duration="63.00" routeLength="841.69" waitingTime="0.00" waitingCount="0" stopTime="0.00" timeLoss="9.76" rerouteNo="0" devices="tripinfo_27" vType="DEFAULT_VEHTYPE" speedFactor="1.04" vaporized=""/>
    <tripinfo id="3" depart="7.00" departLane="E8_0" departPos="5.10" departSpeed="0.00" departDelay="0.65" arrival="123.00" arrivalLane="-256961141#1_0" arrivalPos="204.72" arrivalSpeed="11.99" duration="116.00" routeLength="832.89" waitingTime="40.00" waitingCount="1" stopTime="0.00" timeLoss="50.78" rerouteNo="0" devices="tripinfo_3" vType="DEFAULT_VEHTYPE" speedFactor="0.93" vaporized=""/>
    <tripinfo id="7" depart="15.00" departLane="65746828#0_0" departPos="5.10" departSpeed="0.00" departDelay="0.18" arrival="139.00" arrivalLane="218680176#0_1" arrivalPos="98.94" arrivalSpeed="14.39" duration="124.00" routeLength="602.71" waitingTime="71.00" waitingCount="1" stopTime="0.00" timeLoss="82.78" rerouteNo="0" devices="tripinfo_7" vType="DEFAULT_VEHTYPE" speedFactor="1.09" vaporized=""/>
    <tripinfo id="30" depart="64.00" departLane="E8_0" departPos="5.10" departSpeed="0.00" departDelay="0.47" arrival="143.00" arrivalLane="226276377#0_1" arrivalPos="135.52" arrivalSpeed="14.94" duration="79.00" routeLength="784.51" waitingTime="15.00" waitingCount="1" stopTime="0.00" timeLoss="25.75" rerouteNo="0" devices="tripinfo_30" vType="DEFAULT_VEHTYPE" speedFactor="1.08" vaporized=""/>
    <tripinfo id="35" depart="75.00" departLane="-226276377#1_0" departPos="5.10" departSpeed="0.00" departDelay="0.88" arrival="147.00" arrivalLane="450554042#0_0" arrivalPos="622.66" arrivalSpeed="14.49" duration="72.00" routeLength="763.53" waitingTime="5.00" waitingCount="1" stopTime="0.00" timeLoss="16.23" rerouteNo="0" devices="tripinfo_35" vType="DEFAULT_VEHTYPE" speedFactor="0.87" vaporized=""/>
    <tripinfo id="13" depart="28.00" departLane="-218680176#1_0" departPos="5.10" departSpeed="0.00" departDelay="0.47" arrival="152.00" arrivalLane="-256961141#1_1" arrivalPos="204.72" arrivalSpeed="11.06" duration="124.00" routeLength="1207.38" waitingTime="8.00" waitingCount="2" stopTime="0.00" timeLoss="25.63" rerouteNo="0" devices="tripinfo_13" vType="DEFAULT_VEHTYPE" speedFactor="0.84" vaporized=""/>
    <tripinfo id="20" depart="43.00" departLane="666135205#0_0" departPos="5.10" departSpeed="0.00" departDelay="0.65" arrival="161.00" arrivalLane="-256961141#1_1" arrivalPos="204.72" arrivalSpeed="13.56" duration="118.00" routeLength="1068.72" waitingTime="35.00" waitingCount="1" stopTime="0.00" timeLoss="45.86" rerouteNo="0" devices="tripinfo_20" vType="DEFAULT_VEHTYPE" speedFactor="1.00" vaporized=""/>
    <tripinfo id="50" depart="106.00" departLane="-218680176#1_0" departPos="5.10" departSpeed="0.00" departDelay="0.12" arrival="195.00" arrivalLane="231177697#0_0" arrivalPos="74.44" arrivalSpeed="13.08" duration="89.00" routeLength="205.97" waitingTime="51.00" waitingCount="3" stopTime="0.00" timeLoss="73.44" rerouteNo="0" devices="tripinfo_50" vType="DEFAULT_VEHTYPE" speedFactor="1.00" vaporized=""/>
    <tripinfo id="79" depart="168.00" departLane="-231177697#2_0" departPos="5.10" departSpeed="0.00" departDelay="0.71" arrival="200.00" arrivalLane="153964138#0_0" arrivalPos="337.99" arrivalSpeed="17.41" duration="32.00" routeLength="417.38" waitingTime="0.00" waitingCount="0" stopTime="0.00" timeLoss="7.12" rerouteNo="0" devices="tripinfo_79" vType="DEFAULT_VEHTYPE" speedFactor="1.07" vaporized=""/>
    <tripinfo id="33" depart="70.00" departLane="-231177697#2_0" departPos="5.10" departSpeed="0.00" departDelay="0.12" arrival="202.00" arrivalLane="-256961141#1_0" arrivalPos="204.72" arrivalSpeed="10.04" duration="132.00" routeLength="1204.36" waitingTime="13.00" waitingCount="1" stopTime="0.00" timeLoss="27.39" rerouteNo="0" devices="tripinfo_33" vType="DEFAULT_VEHTYPE" speedFactor="0.78" vaporized=""/>
    <tripinfo id="68" depart="144.00" departLane="-218680176#1_0" departPos="5.10" departSpeed="0.00" departDelay="0.00" arrival="202.00" arrivalLane="231177697#0_0" arrivalPos="74.44" arrivalSpeed="13.25" duration="58.00" routeLength="205.97" waitingTime="20.00" waitingCount="1" stopTime="0.00" timeLoss="43.11" rerouteNo="0" devices="tripinfo_68" vType="DEFAULT_VEHTYPE" speedFactor="1.03" vaporized=""/>
    <tripinfo id="2" depart="5.00" departLane="666135205#0_0" departPos="5.10" departSpeed="0.00" departDelay="0.76" arrival="237.00" arrivalLane="231177697#0_0" arrivalPos="74.44" arrivalSpeed="12.45" duration="232.00" routeLength="649.17" waitingTime="166.00" waitingCount="1" stopTime="0.00" timeLoss="178.59" rerouteNo="0" devices="tripinfo_2" vType="DEFAULT_VEHTYPE" speedFactor="0.90" vaporized=""/>
    <tripinfo id="75" depart="159.00" departLane="E8_0" departPos="5.10" departSpeed="0.00" departDelay="0.18" arrival="238.00" arrivalLane="226276377#0_1" arrivalPos="135.52" arrivalSpeed="10.20" duration="79.00" routeLength="784.51" waitingTime="0.00" waitingCount="0" stopTime="0.00" timeLoss="6.63" rerouteNo="0" devices="tripinfo_75" vType="DEFAULT_VEHTYPE" speedFactor="0.79" vaporized=""/>
    <tripinfo id="85" depart="180.00" departLane="E8_0" departPos="5.10" departSpeed="0.00" departDelay="0.00" arrival="242.00" arrivalLane="226276377#0_1" arrivalPos="135.52" arrivalSpeed="13.93" duration="62.00" routeLength="784.51" waitingTime="0.00" waitingCount="0" stopTime="0.00" timeLoss="6.19" rerouteNo="0" devices="tripinfo_85" vType="DEFAULT_VEHTYPE" speedFactor="1.03" vaporized=""/>
    <tripinfo id="31" depart="66.00" departLane="65746828#0_0" departPos="5.10" departSpeed="0.00" departDelay="0.35" arrival="243.00" arrivalLane="231177697#0_0" arrivalPos="74.44" arrivalSpeed="13.05" duration="177.00" routeLength="558.79" waitingTime="114.00" waitingCount="2" stopTime="0.00" timeLoss="132.71" rerouteNo="0" devices="tripinfo_31" vType="DEFAULT_VEHTYPE" speedFactor="0.95" vaporized=""/>
    <tripinfo id="61" depart="130.00" departLane="978867529_0" departPos="5.10" departSpeed="0.00" departDelay="0.82" arrival="243.00" arrivalLane="218680176#0_0" arrivalPos="98.94" arrivalSpeed="13.67" duration="113.00" routeLength="442.15" waitingTime="74.00" waitingCount="1" stopTime="0.00" timeLoss="85.50" rerouteNo="0" devices="tripinfo_61" vType="DEFAULT_VEHTYPE" speedFactor="1.06" vaporized=""/>
    <tripinfo id="12" depart="26.00" departLane="E8_0" departPos="5.10" departSpeed="0.00" departDelay="0.59" arrival="244.00" arrivalLane="210831347#0_1" arrivalPos="149.88" arrivalSpeed="13.85" duration="218.00" routeLength="1367.17" waitingTime="107.00" waitingCount="2" stopTime="0.00" timeLoss="127.75" rerouteNo="0" devices="tripinfo_12" vType="DEFAULT_VEHTYPE" speedFactor="1.05" vaporized=""/>
    <tripinfo id="1" depart="3.00" departLane="-231177697#2_0" departPos="5.10" departSpeed="0.00" departDelay="0.88" arrival="250.00" arrivalLane="210831345#1_1" arrivalPos="264.29" arrivalSpeed="15.72" duration="247.00" routeLength="696.92" waitingTime="187.00" waitingCount="2" stopTime="0.00" timeLoss="204.08" rerouteNo="0" devices="tripinfo_1" vType="DEFAULT_VEHTYPE" speedFactor="1.19" vaporized=""/>
    <tripinfo id="11" depart="24.00" departLane="-661251539_0" departPos="5.10" departSpeed="0.00" departDelay="0.71" arrival="252.00" arrivalLane="153964138#0_0" arrivalPos="337.99" arrivalSpeed="16.85" duration="228.00" routeLength="1239.04" waitingTime="126.00" waitingCount="2" stopTime="0.00" timeLoss="147.18" rerouteNo="0" devices="tripinfo_11" vType="DEFAULT_VEHTYPE" speedFactor="1.06" vaporized=""/>
    <tripinfo id="21" depart="45.00" departLane="-231177697#2_0" departPos="5.10" departSpeed="0.00" departDelay="0.53" arrival="254.00" arrivalLane="210831345#1_1" arrivalPos="264.29" arrivalSpeed="14.03" duration="209.00" routeLength="696.92" waitingTime="146.00" waitingCount="1" stopTime="0.00" timeLoss="159.27" rerouteNo="0" devices="tripinfo_21" vType="DEFAULT_VEHTYPE" speedFactor="1.02" vaporized=""/>
    <tripinfo id="42" depart="89.00" departLane="-661251539_0" departPos="5.10" departSpeed="0.00" departDelay="0.06" arrival="254.00" arrivalLane="153964138#0_1" arrivalPos="337.99" arrivalSpeed="14.91" duration="165.00" routeLength="1239.04" waitingTime="57.00" waitingCount="2" stopTime="0.00" timeLoss="75.00" rerouteNo="0" devices="tripinfo_42" vType="DEFAULT_VEHTYPE" speedFactor="0.95" vaporized=""/>
    <tripinfo id="25" depart="53.00" departLane="-661251539_0" departPos="5.10" departSpeed="0.00" departDelay="0.06" arrival="255.00" arrivalLane="153964138#0_0" arrivalPos="337.99" arrivalSpeed="16.88" duration="202.00" routeLength="1239.04" waitingTime="105.00" waitingCount="1" stopTime="0.00" timeLoss="118.87" rerouteNo="0" devices="tripinfo_25" vType="DEFAULT_VEHTYPE" speedFactor="1.03" vaporized=""/>
    <tripinfo id="34" depart="72.00" departLane="-231177697#2_0" departPos="5.10" departSpeed="0.00" departDelay="0.00" arrival="257.00" arrivalLane="210831345#1_1" arrivalPos="264.29" arrivalSpeed="13.75" duration="185.00" routeLength="696.92" waitingTime="120.00" waitingCount="1" stopTime="0.00" timeLoss="134.53" rerouteNo="0" devices="tripinfo_34" vType="DEFAULT_VEHTYPE" speedFactor="1.02" vaporized=""/>
    <tripinfo id="59" depart="125.00" departLane="65746828#0_0" departPos="5.10" departSpeed="0.00" departDelay="0.06" arrival="257.00" arrivalLane="153964138#0_1" arrivalPos="337.99" arrivalSpeed="15.21" duration="132.00" routeLength="834.49" waitingTime="54.00" waitingCount="2" stopTime="0.00" timeLoss="70.85" rerouteNo="0" devices="tripinfo_59" vType="DEFAULT_VEHTYPE" speedFactor="0.93" vaporized=""/>
    <tripinfo id="92" depart="195.00" departLane="-661251539_0" departPos="5.10" departSpeed="0.00" departDelay="0.18" arrival="258.00" arrivalLane="210831347#0_1" arrivalPos="149.88" arrivalSpeed="14.03" duration="63.00" routeLength="731.18" waitingTime="0.00" waitingCount="0" stopTime="0.00" timeLoss="11.70" rerouteNo="0" devices="tripinfo_92" vType="DEFAULT_VEHTYPE" speedFactor="1.04" vaporized=""/>
    <tripinfo id="39" depart="83.00" departLane="-231177697#2_0" departPos="5.10" departSpeed="0.00" departDelay="0.41" arrival="261.00" arrivalLane="210831345#1_0" arrivalPos="264.29" arrivalSpeed="12.14" duration="178.00" routeLength="696.92" waitingTime="108.00" waitingCount="1" stopTime="0.00" timeLoss="121.55" rerouteNo="0" devices="tripinfo_39" vType="DEFAULT_VEHTYPE" speedFactor="0.91" vaporized=""/>
    <tripinfo id="23" depart="50.00" departLane="-218680176#1_0" departPos="5.10" departSpeed="0.00" departDelay="1.29" arrival="263.00" arrivalLane="210831345#1_0" arrivalPos="264.29" arrivalSpeed="15.02" duration="213.00" routeLength="699.94" waitingTime="141.00" waitingCount="3" stopTime="0.00" timeLoss="168.01" rerouteNo="0" devices="tripinfo_23" vType="DEFAULT_VEHTYPE" speedFactor="1.14" vaporized=""/>
    <tripinfo id="22" depart="47.00" departLane="-218680176#1_0" departPos="5.10" departSpeed="0.00" departDelay="0.41" arrival="264.00" arrivalLane="210831345#1_0" arrivalPos="264.29" arrivalSpeed="11.55" duration="217.00" routeLength="699.94" waitingTime="143.00" waitingCount="2" stopTime="0.00" timeLoss="159.04" rerouteNo="0" devices="tripinfo_22" vType="DEFAULT_VEHTYPE" speedFactor="0.89" vaporized=""/>
    <tripinfo id="62" depart="132.00" departLane="-218680176#1_0" departPos="5.10" departSpeed="0.00" departDelay="0.71" arrival="265.00" arrivalLane="210831345#1_1" arrivalPos="264.29" arrivalSpeed="14.78" duration="133.00" routeLength="699.94" waitingTime="56.00" waitingCount="3" stopTime="0.00" timeLoss="87.21" rerouteNo="0" devices="tripinfo_62" vType="DEFAULT_VEHTYPE" speedFactor="1.14" vaporized=""/>
    <tripinfo id="86" depart="183.00" departLane="256961141#0_0" departPos="5.10" departSpeed="0.00" departDelay="0.88" arrival="268.00" arrivalLane="39907424_0" arrivalPos="316.44" arrivalSpeed="15.90" duration="85.00" routeLength="873.95" waitingTime="20.00" waitingCount="1" stopTime="0.00" timeLoss="32.60" rerouteNo="0" devices="tripinfo_86" vType="DEFAULT_VEHTYPE" speedFactor="1.18" vaporized=""/>
    <tripinfo id="47" depart="100.00" departLane="-218680176#1_0" departPos="5.10" departSpeed="0.00" departDelay="0.47" arrival="270.00" arrivalLane="210831347#0_0" arrivalPos="149.88" arrivalSpeed="13.35" duration="170.00" routeLength="560.58" waitingTime="101.00" waitingCount="4" stopTime="0.00" timeLoss="129.34" rerouteNo="0" devices="tripinfo_47" vType="DEFAULT_VEHTYPE" speedFactor="1.04" vaporized=""/>
    <tripinfo id="88" depart="187.00" departLane="-218680176#1_0" departPos="5.10" departSpeed="0.00" departDelay="0.65" arrival="271.00" arrivalLane="210831347#0_0" arrivalPos="149.88" arrivalSpeed="15.55" duration="84.00" routeLength="560.58" waitingTime="32.00" waitingCount="1" stopTime="0.00" timeLoss="47.29" rerouteNo="0" devices="tripinfo_88" vType="DEFAULT_VEHTYPE" speedFactor="1.14" vaporized=""/>
    <tripinfo id="40" depart="85.00" departLane="65746828#0_0" departPos="5.10" departSpeed="0.00" departDelay="0.29" arrival="273.00" arrivalLane="210831345#1_0" arrivalPos="264.29" arrivalSpeed="13.18" duration="188.00" routeLength="446.75" waitingTime="146.00" waitingCount="1" stopTime="0.00" timeLoss="155.76" rerouteNo="0" devices="tripinfo_40" vType="DEFAULT_VEHTYPE" speedFactor="1.01" vaporized=""/>
    <tripinfo id="115" depart="244.00" departLane="-218680176#1_0" departPos="5.10" departSpeed="0.00" departDelay="0.47" arrival="277.00" arrivalLane="153964138#0_2" arrivalPos="337.99" arrivalSpeed="17.07" duration="33.00" routeLength="462.27" waitingTime="0.00" waitingCount="0" stopTime="0.00" timeLoss="4.63" rerouteNo="0" devices="tripinfo_115" vType="DEFAULT_VEHTYPE" speedFactor="1.05" vaporized=""/>
    <tripinfo id="46" depart="98.00" departLane="978867529_0" departPos="5.10" departSpeed="0.00" departDelay="0.59" arrival="279.00" arrivalLane="210831347#0_0" arrivalPos="149.88" arrivalSpeed="10.11" duration="181.00" routeLength="812.56" waitingTime="99.00" waitingCount="1" stopTime="0.00" timeLoss="111.69" rerouteNo="0" devices="tripinfo_46" vType="DEFAULT_VEHTYPE" speedFactor="0.80" vaporized=""/>
    <tripinfo id="95" depart="202.00" departLane="-661251539_0" departPos="5.10" departSpeed="0.00" departDelay="0.82" arrival="281.00" arrivalLane="210831345#1_0" arrivalPos="264.29" arrivalSpeed="13.36" duration="79.00" routeLength="826.64" waitingTime="5.00" waitingCount="1" stopTime="0.00" timeLoss="20.15" rerouteNo="0" devices="tripinfo_95" vType="DEFAULT_VEHTYPE" speedFactor="1.04" vaporized=""/>
    <tripinfo id="103" depart="219.00" departLane="-661251539_0" departPos="5.10" departSpeed="0.00" departDelay="0.88" arrival="291.00" arrivalLane="-256961141#1_1" arrivalPos="204.72" arrivalSpeed="12.58" duration="72.00" routeLength="872.91" waitingTime="0.00" waitingCount="0" stopTime="0.00" timeLoss="8.53" rerouteNo="0" devices="tripinfo_103" vType="DEFAULT_VEHTYPE" speedFactor="0.95" vaporized=""/>
    <tripinfo id="73" depart="155.00" departLane="256961141#0_0" departPos="5.10" departSpeed="0.00" departDelay="0.41" arrival="293.00" arrivalLane="231177697#0_0" arrivalPos="74.44" arrivalSpeed="13.51" duration="138.00" routeLength="1163.55" waitingTime="34.00" waitingCount="2" stopTime="0.00" timeLoss="59.33" rerouteNo="0" devices="tripinfo_73" vType="DEFAULT_VEHTYPE" speedFactor="1.04" vaporized=""/>
    <tripinfo id="71" depart="151.00" departLane="-231177697#2_0" departPos="5.10" departSpeed="0.00" departDelay="0.65" arrival="300.00" arrivalLane="39907424_0" arrivalPos="316.44" arrivalSpeed="12.16" duration="149.00" routeLength="961.15" waitingTime="63.00" waitingCount="1" stopTime="0.00" timeLoss="77.59" rerouteNo="0" devices="tripinfo_71" vType="DEFAULT_VEHTYPE" speedFactor="0.96" vaporized=""/>
    <tripinfo id="56" depart="119.00" departLane="256961141#0_0" departPos="5.10" departSpeed="0.00" departDelay="0.41" arrival="308.00" arrivalLane="153964138#0_0" arrivalPos="337.99" arrivalSpeed="14.60" duration="189.00" routeLength="1439.25" waitingTime="63.00" waitingCount="2" stopTime="0.00" timeLoss="80.90" rerouteNo="0" devices="tripinfo_56" vType="DEFAULT_VEHTYPE" speedFactor="0.89" vaporized=""/>
    <tripinfo id="64" depart="136.00" departLane="978867529_0" departPos="5.10" departSpeed="0.00" departDelay="0.47" arrival="309.00" arrivalLane="39907424_0" arrivalPos="316.44" arrivalSpeed="12.87" duration="173.00" routeLength="1216.15" waitingTime="67.00" waitingCount="1" stopTime="0.00" timeLoss="90.52" rerouteNo="0" devices="tripinfo_64" vType="DEFAULT_VEHTYPE" speedFactor="1.00" vaporized=""/>
    <tripinfo id="72" depart="153.00" departLane="-661251539_0" departPos="5.10" departSpeed="0.00" departDelay="0.53" arrival="311.00" arrivalLane="153964138#0_0" arrivalPos="337.99" arrivalSpeed="14.12" duration="158.00" routeLength="1239.04" waitingTime="43.00" waitingCount="1" stopTime="0.00" timeLoss="57.91" rerouteNo="0" devices="tripinfo_72" vType="DEFAULT_VEHTYPE" speedFactor="0.85" vaporized=""/>
    <tripinfo id="132" depart="280.00" departLane="978867529_0" departPos="5.10" departSpeed="0.00" departDelay="0.47" arrival="311.00" arrivalLane="231177697#0_1" arrivalPos="74.44" arrivalSpeed="14.48" duration="31.00" routeLength="437.06" waitingTime="0.00" waitingCount="0" stopTime="0.00" timeLoss="4.68" rerouteNo="0" devices="tripinfo_132" vType="DEFAULT_VEHTYPE" speedFactor="1.07" vaporized=""/>
    <tripinfo id="51" depart="108.00" departLane="666135205#0_0" departPos="5.10" departSpeed="0.00" departDelay="0.00" arrival="316.00" arrivalLane="218680176#0_1" arrivalPos="98.94" arrivalSpeed="12.79" duration="208.00" routeLength="693.09" waitingTime="137.00" waitingCount="2" stopTime="0.00" timeLoss="155.03" rerouteNo="0" devices="tripinfo_51" vType="DEFAULT_VEHTYPE" speedFactor="0.97" vaporized=""/>
    <tripinfo id="114" depart="242.00" departLane="-226276377#1_0" departPos="5.10" departSpeed="0.00" departDelay="0.59" arrival="317.00" arrivalLane="450554042#0_0" arrivalPos="622.66" arrivalSpeed="16.56" duration="75.00" routeLength="763.53" waitingTime="15.00" waitingCount="1" stopTime="0.00" timeLoss="25.80" rerouteNo="0" devices="tripinfo_114" vType="DEFAULT_VEHTYPE" speedFactor="1.00" vaporized=""/>
    <tripinfo id="76" depart="161.00" departLane="-661251539_0" departPos="5.10" departSpeed="0.00" departDelay="0.06" arrival="318.00" arrivalLane="218680176#0_1" arrivalPos="98.94" arrivalSpeed="11.93" duration="157.00" routeLength="1001.21" waitingTime="62.00" waitingCount="2" stopTime="0.00" timeLoss="79.65" rerouteNo="0" devices="tripinfo_76" vType="DEFAULT_VEHTYPE" speedFactor="0.94" vaporized=""/>
    <tripinfo id="78" depart="166.00" departLane="-661251539_0" departPos="5.10" departSpeed="0.00" departDelay="0.82" arrival="319.00" arrivalLane="226276377#0_0" arrivalPos="135.52" arrivalSpeed="13.75" duration="153.00" routeLength="783.10" waitingTime="87.00" waitingCount="1" stopTime="0.00" timeLoss="100.94" rerouteNo="0" devices="tripinfo_78" vType="DEFAULT_VEHTYPE" speedFactor="1.06" vaporized=""/>
    <tripinfo id="52" depart="111.00" departLane="-231177697#2_0" departPos="5.10" departSpeed="0.00" departDelay="0.88" arrival="320.00" arrivalLane="226276377#0_0" arrivalPos="135.52" arrivalSpeed="15.33" duration="209.00" routeLength="1114.55" waitingTime="114.00" waitingCount="3" stopTime="0.00" timeLoss="142.71" rerouteNo="0" devices="tripinfo_52" vType="DEFAULT_VEHTYPE" speedFactor="1.13" vaporized=""/>
    <tripinfo id="70" depart="149.00" departLane="256961141#0_0" departPos="5.10" departSpeed="0.00" departDelay="0.76" arrival="320.00" arrivalLane="218680176#0_1" arrivalPos="98.94" arrivalSpeed="14.39" duration="171.00" routeLength="1207.47" waitingTime="59.00" waitingCount="3" stopTime="0.00" timeLoss="89.43" rerouteNo="0" devices="tripinfo_70" vType="DEFAULT_VEHTYPE" speedFactor="1.04" vaporized=""/>
    <tripinfo id="89" depart="189.00" departLane="-661251539_0" departPos="5.10" departSpeed="0.00" departDelay="0.53" arrival="323.00" arrivalLane="218680176#0_1" arrivalPos="98.94" arrivalSpeed="12.35" duration="134.00" routeLength="1001.21" waitingTime="28.00" waitingCount="4" stopTime="0.00" timeLoss="53.82" rerouteNo="0" devices="tripinfo_89" vType="DEFAULT_VEHTYPE" speedFactor="0.92" vaporized=""/>
    <tripinfo id="45" depart="97.00" departLane="-218680176#1_0" departPos="5.10" departSpeed="0.00" departDelay="1.71" arrival="324.00" arrivalLane="226276377#0_0" arrivalPos="135.52" arrivalSpeed="14.21" duration="227.00" routeLength="1117.57" waitingTime="117.00" waitingCount="5" stopTime="0.00" timeLoss="155.93" rerouteNo="0" devices="tripinfo_45" vType="DEFAULT_VEHTYPE" speedFactor="1.08" vaporized=""/>
    <tripinfo id="60" depart="128.00" departLane="666135205#0_0" departPos="5.10" departSpeed="0.00" departDelay="0.94" arrival="325.00" arrivalLane="218680176#0_1" arrivalPos="98.94" arrivalSpeed="13.15" duration="197.00" routeLength="693.09" waitingTime="123.00" waitingCount="3" stopTime="0.00" timeLoss="143.67" rerouteNo="0" devices="tripinfo_60" vType="DEFAULT_VEHTYPE" speedFactor="0.97" vaporized=""/>
    <tripinfo id="58" depart="123.00" departLane="-231177697#2_0" departPos="5.10" departSpeed="0.00" departDelay="0.18" arrival="326.00" arrivalLane="226276377#0_0" arrivalPos="135.52" arrivalSpeed="14.07" duration="203.00" routeLength="1114.55" waitingTime="103.00" waitingCount="3" stopTime="0.00" timeLoss="129.98" rerouteNo="0" devices="tripinfo_58" vType="DEFAULT_VEHTYPE" speedFactor="1.03" vaporized=""/>
    <tripinfo id="91" depart="193.00" departLane="E8_0" departPos="5.10" departSpeed="0.00" departDelay="0.29" arrival="327.00" arrivalLane="-256961141#1_0" arrivalPos="204.72" arrivalSpeed="13.69" duration="134.00" routeLength="832.89" waitingTime="61.00" waitingCount="1" stopTime="0.00" timeLoss="73.03" rerouteNo="0" devices="tripinfo_91" vType="DEFAULT_VEHTYPE" speedFactor="1.01" vaporized=""/>
    <tripinfo id="80" depart="170.00" departLane="-218680176#1_0" departPos="5.10" departSpeed="0.00" departDelay="0.59" arrival="328.00" arrivalLane="226276377#0_0" arrivalPos="135.52" arrivalSpeed="14.19" duration="158.00" routeLength="1117.57" waitingTime="50.00" waitingCount="3" stopTime="0.00" timeLoss="85.31" rerouteNo="0" devices="tripinfo_80" vType="DEFAULT_VEHTYPE" speedFactor="1.05" vaporized=""/>
    <tripinfo id="18" depart="39.00" departLane="978867529_0" departPos="5.10" departSpeed="0.00" departDelay="0.88" arrival="330.00" arrivalLane="226276377#0_0" arrivalPos="135.52" arrivalSpeed="14.42" duration="291.00" routeLength="1369.55" waitingTime="168.00" waitingCount="3" stopTime="0.00" timeLoss="209.32" rerouteNo="0" devices="tripinfo_18" vType="DEFAULT_VEHTYPE" speedFactor="1.10" vaporized=""/>
    <tripinfo id="36" depart="77.00" departLane="978867529_0" departPos="5.10" departSpeed="0.00" departDelay="0.76" arrival="330.00" arrivalLane="210831345#1_1" arrivalPos="264.29" arrivalSpeed="12.12" duration="253.00" routeLength="951.92" waitingTime="165.00" waitingCount="2" stopTime="0.00" timeLoss="183.89" rerouteNo="0" devices="tripinfo_36" vType="DEFAULT_VEHTYPE" speedFactor="0.95" vaporized=""/>
    <tripinfo id="55" depart="117.00" departLane="978867529_0" departPos="5.10" departSpeed="0.00" departDelay="0.53" arrival="331.00" arrivalLane="210831345#1_0" arrivalPos="264.29" arrivalSpeed="14.17" duration="214.00" routeLength="951.92" waitingTime="127.00" waitingCount="2" stopTime="0.00" timeLoss="154.08" rerouteNo="0" devices="tripinfo_55" vType="DEFAULT_VEHTYPE" speedFactor="1.09" vaporized=""/>
    <tripinfo id="14" depart="30.00" departLane="978867529_0" departPos="5.10" departSpeed="0.00" departDelay="0.35" arrival="332.00" arrivalLane="226276377#0_0" arrivalPos="135.52" arrivalSpeed="16.87" duration="302.00" routeLength="1369.55" waitingTime="183.00" waitingCount="3" stopTime="0.00" timeLoss="228.02" rerouteNo="0" devices="tripinfo_14" vType="DEFAULT_VEHTYPE" speedFactor="1.22" vaporized=""/>
    <tripinfo id="93" depart="197.00" departLane="978867529_0" departPos="5.10" departSpeed="0.00" departDelay="0.06" arrival="333.00" arrivalLane="210831345#1_1" arrivalPos="264.29" arrivalSpeed="13.24" duration="136.00" routeLength="951.92" waitingTime="47.00" waitingCount="2" stopTime="0.00" timeLoss="72.73" rerouteNo="0" devices="tripinfo_93" vType="DEFAULT_VEHTYPE" speedFactor="1.04" vaporized=""/>
    <tripinfo id="113" depart="240.00" departLane="256961141#0_0" departPos="5.10" departSpeed="0.00" departDelay="0.71" arrival="334.00" arrivalLane="39907424_0" arrivalPos="316.44" arrivalSpeed="11.90" duration="94.00" routeLength="873.95" waitingTime="14.00" waitingCount="1" stopTime="0.00" timeLoss="27.26" rerouteNo="0" devices="tripinfo_113" vType="DEFAULT_VEHTYPE" speedFactor="0.92" vaporized=""/>
    <tripinfo id="106" depart="225.00" departLane="256961141#0_0" departPos="5.10" departSpeed="0.00" departDelay="0.53" arrival="335.00" arrivalLane="210831347#0_1" arrivalPos="149.88" arrivalSpeed="11.74" duration="110.00" routeLength="937.44" waitingTime="20.00" waitingCount="1" stopTime="0.00" timeLoss="36.92" rerouteNo="0" devices="tripinfo_106" vType="DEFAULT_VEHTYPE" speedFactor="0.89" vaporized=""/>