<?xml version="1.0" encoding="UTF-8"?>

<!-- generated on 2024-09-03 02:46:54 by Eclipse SUMO sumo Version 1.20.0
<configuration xmlns:xsi="http://www.w3.org/2001/XMLSchema-instance" xsi:noNamespaceSchemaLocation="http://sumo.dlr.de/xsd/sumoConfiguration.xsd">

    <input>
        <net-file value="c:\self\School\Master\Disertation\code\RESCO\resco_benchmark\environments/unirii/osm.net.xml.gz"/>
        <route-files value="c:\self\School\Master\Disertation\code\RESCO\resco_benchmark\environments/unirii/osm.passenger.trips.xml"/>
        <additional-files value="c:\self\School\Master\Disertation\code\RESCO\resco_benchmark\environments/unirii/osm.poly.xml.gz"/>
    </input>

    <output>
        <tripinfo-output value="C:\self\School\Master\Disertation\code\RESCO\results\IA2C-tr0-unirii-0-drq_norm-wait_norm\tripinfo_56.xml"/>
        <tripinfo-output.write-unfinished value="true"/>
    </output>

    <processing>
        <ignore-route-errors value="true"/>
        <time-to-teleport value="-1"/>
    </processing>

    <routing>
        <device.rerouting.adaptation-steps value="18"/>
        <device.rerouting.adaptation-interval value="10"/>
    </routing>

    <report>
        <verbose value="true"/>
        <no-warnings value="True"/>
        <duration-log.statistics value="true"/>
        <no-step-log value="True"/>
    </report>

    <traci_server>
        <remote-port value="52386"/>
    </traci_server>

    <random_number>
        <random value="true"/>
    </random_number>

    <gui_only>
        <gui-settings-file value="c:\self\School\Master\Disertation\code\RESCO\resco_benchmark\environments/unirii/osm.view.xml"/>
    </gui_only>

</configuration>
-->

<tripinfos xmlns:xsi="http://www.w3.org/2001/XMLSchema-instance" xsi:noNamespaceSchemaLocation="http://sumo.dlr.de/xsd/tripinfo_file.xsd">
    <tripinfo id="10" depart="23.00" departLane="978867529_0" departPos="5.10" departSpeed="0.00" departDelay="1.82" arrival="63.00" arrivalLane="231177697#0_1" arrivalPos="74.44" arrivalSpeed="13.17" duration="40.00" routeLength="437.06" waitingTime="3.00" waitingCount="1" stopTime="0.00" timeLoss="10.06" rerouteNo="0" devices="tripinfo_10" vType="DEFAULT_VEHTYPE" speedFactor="0.95" vaporized=""/>
    <tripinfo id="15" depart="33.00" departLane="978867529_0" departPos="5.10" departSpeed="0.00" departDelay="1.24" arrival="67.00" arrivalLane="231177697#0_1" arrivalPos="74.44" arrivalSpeed="12.92" duration="34.00" routeLength="437.06" waitingTime="0.00" waitingCount="0" stopTime="0.00" timeLoss="4.53" rerouteNo="0" devices="tripinfo_15" vType="DEFAULT_VEHTYPE" speedFactor="0.97" vaporized=""/>
    <tripinfo id="3" depart="7.00" departLane="E8_0" departPos="5.10" departSpeed="0.00" departDelay="0.65" arrival="69.00" arrivalLane="-256961141#1_0" arrivalPos="204.72" arrivalSpeed="15.37" duration="62.00" routeLength="832.89" waitingTime="0.00" waitingCount="0" stopTime="0.00" timeLoss="9.42" rerouteNo="0" devices="tripinfo_3" vType="DEFAULT_VEHTYPE" speedFactor="1.16" vaporized=""/>
    <tripinfo id="32" depart="68.00" departLane="978867529_0" departPos="5.10" departSpeed="0.00" departDelay="0.24" arrival="107.00" arrivalLane="231177697#0_1" arrivalPos="74.44" arrivalSpeed="10.69" duration="39.00" routeLength="437.06" waitingTime="0.00" waitingCount="0" stopTime="0.00" timeLoss="4.48" rerouteNo="0" devices="tripinfo_32" vType="DEFAULT_VEHTYPE" speedFactor="0.84" vaporized=""/>
    <tripinfo id="12" depart="26.00" departLane="E8_0" departPos="5.10" departSpeed="0.00" departDelay="0.59" arrival="121.00" arrivalLane="210831347#0_1" arrivalPos="149.88" arrivalSpeed="14.55" duration="95.00" routeLength="1367.17" waitingTime="0.00" waitingCount="0" stopTime="0.00" timeLoss="8.94" rerouteNo="0" devices="tripinfo_12" vType="DEFAULT_VEHTYPE" speedFactor="1.11" vaporized=""/>
    <tripinfo id="11" depart="24.00" departLane="-661251539_0" departPos="5.10" departSpeed="0.00" departDelay="0.71" arrival="128.00" arrivalLane="153964138#0_0" arrivalPos="337.99" arrivalSpeed="15.43" duration="104.00" routeLength="1239.04" waitingTime="3.00" waitingCount="1" stopTime="0.00" timeLoss="17.15" rerouteNo="0" devices="tripinfo_11" vType="DEFAULT_VEHTYPE" speedFactor="0.98" vaporized=""/>
    <tripinfo id="1" depart="3.00" departLane="-231177697#2_0" departPos="5.10" departSpeed="0.00" departDelay="0.88" arrival="129.00" arrivalLane="210831345#1_1" arrivalPos="264.29" arrivalSpeed="12.41" duration="126.00" routeLength="696.92" waitingTime="64.00" waitingCount="1" stopTime="0.00" timeLoss="72.19" rerouteNo="0" devices="tripinfo_1" vType="DEFAULT_VEHTYPE" speedFactor="0.96" vaporized=""/>
    <tripinfo id="35" depart="75.00" departLane="-226276377#1_0" departPos="5.10" departSpeed="0.00" departDelay="0.88" arrival="129.00" arrivalLane="450554042#0_0" arrivalPos="622.66" arrivalSpeed="16.64" duration="54.00" routeLength="763.53" waitingTime="0.00" waitingCount="0" stopTime="0.00" timeLoss="6.20" rerouteNo="0" devices="tripinfo_35" vType="DEFAULT_VEHTYPE" speedFactor="1.02" vaporized=""/>
    <tripinfo id="22" depart="47.00" departLane="-218680176#1_0" departPos="5.10" departSpeed="0.00" departDelay="0.41" arrival="130.00" arrivalLane="210831345#1_1" arrivalPos="264.29" arrivalSpeed="14.28" duration="83.00" routeLength="699.94" waitingTime="17.00" waitingCount="2" stopTime="0.00" timeLoss="33.91" rerouteNo="0" devices="tripinfo_22" vType="DEFAULT_VEHTYPE" speedFactor="1.04" vaporized=""/>
    <tripinfo id="23" depart="50.00" departLane="-218680176#1_0" departPos="5.10" departSpeed="0.00" departDelay="1.29" arrival="142.00" arrivalLane="210831345#1_1" arrivalPos="264.29" arrivalSpeed="15.05" duration="92.00" routeLength="699.94" waitingTime="31.00" waitingCount="2" stopTime="0.00" timeLoss="44.86" rerouteNo="0" devices="tripinfo_23" vType="DEFAULT_VEHTYPE" speedFactor="1.09" vaporized=""/>
    <tripinfo id="36" depart="77.00" departLane="978867529_0" departPos="5.10" departSpeed="0.00" departDelay="0.76" arrival="159.00" arrivalLane="210831345#1_0" arrivalPos="264.29" arrivalSpeed="12.03" duration="82.00" routeLength="951.92" waitingTime="0.00" waitingCount="0" stopTime="0.00" timeLoss="10.40" rerouteNo="0" devices="tripinfo_36" vType="DEFAULT_VEHTYPE" speedFactor="0.91" vaporized=""/>
    <tripinfo id="17" depart="36.00" departLane="-661251539_0" departPos="5.10" departSpeed="0.00" departDelay="0.00" arrival="164.00" arrivalLane="218680176#0_1" arrivalPos="98.94" arrivalSpeed="14.12" duration="128.00" routeLength="1001.21" waitingTime="47.00" waitingCount="1" stopTime="0.00" timeLoss="57.93" rerouteNo="0" devices="tripinfo_17" vType="DEFAULT_VEHTYPE" speedFactor="1.04" vaporized=""/>
    <tripinfo id="46" depart="98.00" departLane="978867529_0" departPos="5.10" departSpeed="0.00" departDelay="0.59" arrival="171.00" arrivalLane="210831347#0_0" arrivalPos="149.88" arrivalSpeed="12.27" duration="73.00" routeLength="812.56" waitingTime="0.00" waitingCount="0" stopTime="0.00" timeLoss="11.50" rerouteNo="0" devices="tripinfo_46" vType="DEFAULT_VEHTYPE" speedFactor="0.91" vaporized=""/>
    <tripinfo id="27" depart="58.00" departLane="65746828#0_0" departPos="5.10" departSpeed="0.00" departDelay="0.82" arrival="172.00" arrivalLane="226276377#0_0" arrivalPos="135.52" arrivalSpeed="14.52" duration="114.00" routeLength="841.69" waitingTime="49.00" waitingCount="1" stopTime="0.00" timeLoss="60.60" rerouteNo="0" devices="tripinfo_27" vType="DEFAULT_VEHTYPE" speedFactor="1.06" vaporized=""/>
    <tripinfo id="40" depart="85.00" departLane="65746828#0_0" departPos="5.10" departSpeed="0.00" departDelay="0.29" arrival="174.00" arrivalLane="210831345#1_0" arrivalPos="264.29" arrivalSpeed="12.94" duration="89.00" routeLength="446.75" waitingTime="42.00" waitingCount="2" stopTime="0.00" timeLoss="55.22" rerouteNo="0" devices="tripinfo_40" vType="DEFAULT_VEHTYPE" speedFactor="0.95" vaporized=""/>
    <tripinfo id="51" depart="108.00" departLane="666135205#0_0" departPos="5.10" departSpeed="0.00" departDelay="0.00" arrival="190.00" arrivalLane="218680176#0_1" arrivalPos="98.94" arrivalSpeed="13.13" duration="82.00" routeLength="693.09" waitingTime="17.00" waitingCount="2" stopTime="0.00" timeLoss="30.16" rerouteNo="0" devices="tripinfo_51" vType="DEFAULT_VEHTYPE" speedFactor="0.98" vaporized=""/>
    <tripinfo id="30" depart="64.00" departLane="E8_0" departPos="5.10" departSpeed="0.00" departDelay="0.47" arrival="191.00" arrivalLane="226276377#0_1" arrivalPos="135.52" arrivalSpeed="17.36" duration="127.00" routeLength="784.51" waitingTime="70.00" waitingCount="1" stopTime="0.00" timeLoss="81.37" rerouteNo="0" devices="tripinfo_30" vType="DEFAULT_VEHTYPE" speedFactor="1.27" vaporized=""/>
    <tripinfo id="4" depart="9.00" departLane="-661251539_0" departPos="5.10" departSpeed="0.00" departDelay="0.53" arrival="197.00" arrivalLane="-256961141#1_1" arrivalPos="204.72" arrivalSpeed="14.49" duration="188.00" routeLength="872.91" waitingTime="119.00" waitingCount="1" stopTime="0.00" timeLoss="130.78" rerouteNo="0" devices="tripinfo_4" vType="DEFAULT_VEHTYPE" speedFactor="1.08" vaporized=""/>
    <tripinfo id="0" depart="0.00" departLane="65746828#0_0" departPos="5.10" departSpeed="0.00" departDelay="0.00" arrival="204.00" arrivalLane="-256961141#1_0" arrivalPos="204.72" arrivalSpeed="10.39" duration="204.00" routeLength="931.50" waitingTime="114.00" waitingCount="2" stopTime="0.00" timeLoss="128.13" rerouteNo="0" devices="tripinfo_0" vType="DEFAULT_VEHTYPE" speedFactor="0.82" vaporized=""/>
    <tripinfo id="13" depart="28.00" departLane="-218680176#1_0" departPos="5.10" departSpeed="0.00" departDelay="0.47" arrival="206.00" arrivalLane="-256961141#1_1" arrivalPos="204.72" arrivalSpeed="12.63" duration="178.00" routeLength="1207.38" waitingTime="75.00" waitingCount="2" stopTime="0.00" timeLoss="95.83" rerouteNo="0" devices="tripinfo_13" vType="DEFAULT_VEHTYPE" speedFactor="1.00" vaporized=""/>
    <tripinfo id="9" depart="20.00" departLane="978867529_0" departPos="5.10" departSpeed="0.00" departDelay="0.94" arrival="209.00" arrivalLane="-256961141#1_1" arrivalPos="204.72" arrivalSpeed="13.97" duration="189.00" routeLength="1459.36" waitingTime="77.00" waitingCount="2" stopTime="0.00" timeLoss="100.86" rerouteNo="0" devices="tripinfo_9" vType="DEFAULT_VEHTYPE" speedFactor="1.08" vaporized=""/>
    <tripinfo id="49" depart="105.00" departLane="E8_0" departPos="5.10" departSpeed="0.00" departDelay="1.24" arrival="210.00" arrivalLane="39907424_0" arrivalPos="316.44" arrivalSpeed="12.64" duration="105.00" routeLength="1303.68" waitingTime="0.00" waitingCount="0" stopTime="0.00" timeLoss="8.75" rerouteNo="0" devices="tripinfo_49" vType="DEFAULT_VEHTYPE" speedFactor="0.95" vaporized=""/>
    <tripinfo id="57" depart="121.00" departLane="E8_0" departPos="5.10" departSpeed="0.00" departDelay="0.29" arrival="213.00" arrivalLane="39907424_0" arrivalPos="316.44" arrivalSpeed="15.33" duration="92.00" routeLength="1303.68" waitingTime="0.00" waitingCount="0" stopTime="0.00" timeLoss="10.91" rerouteNo="0" devices="tripinfo_57" vType="DEFAULT_VEHTYPE" speedFactor="1.13" vaporized=""/>
    <tripinfo id="79" depart="168.00" departLane="-231177697#2_0" departPos="5.10" departSpeed="0.00" departDelay="0.71" arrival="220.00" arrivalLane="153964138#0_0" arrivalPos="337.99" arrivalSpeed="19.15" duration="52.00" routeLength="417.38" waitingTime="18.00" waitingCount="1" stopTime="0.00" timeLoss="29.15" rerouteNo="0" devices="tripinfo_79" vType="DEFAULT_VEHTYPE" speedFactor="1.19" vaporized=""/>
    <tripinfo id="43" depart="92.00" departLane="E8_0" departPos="5.10" departSpeed="0.00" departDelay="0.94" arrival="232.00" arrivalLane="218680176#0_1" arrivalPos="98.94" arrivalSpeed="12.46" duration="140.00" routeLength="1637.20" waitingTime="7.00" waitingCount="1" stopTime="0.00" timeLoss="20.01" rerouteNo="0" devices="tripinfo_43" vType="DEFAULT_VEHTYPE" speedFactor="0.96" vaporized=""/>
    <tripinfo id="50" depart="106.00" departLane="-218680176#1_0" departPos="5.10" departSpeed="0.00" departDelay="0.12" arrival="236.00" arrivalLane="231177697#0_0" arrivalPos="74.44" arrivalSpeed="12.57" duration="130.00" routeLength="205.97" waitingTime="95.00" waitingCount="3" stopTime="0.00" timeLoss="113.98" rerouteNo="0" devices="tripinfo_50" vType="DEFAULT_VEHTYPE" speedFactor="0.96" vaporized=""/>
    <tripinfo id="68" depart="144.00" departLane="-218680176#1_0" departPos="5.10" departSpeed="0.00" departDelay="0.00" arrival="242.00" arrivalLane="231177697#0_0" arrivalPos="74.44" arrivalSpeed="15.59" duration="98.00" routeLength="205.97" waitingTime="59.00" waitingCount="3" stopTime="0.00" timeLoss="84.60" rerouteNo="0" devices="tripinfo_68" vType="DEFAULT_VEHTYPE" speedFactor="1.18" vaporized=""/>
    <tripinfo id="16" depart="34.00" departLane="256961141#0_0" departPos="5.10" departSpeed="0.00" departDelay="0.12" arrival="247.00" arrivalLane="450554042#0_0" arrivalPos="622.66" arrivalSpeed="15.94" duration="213.00" routeLength="853.74" waitingTime="148.00" waitingCount="1" stopTime="0.00" timeLoss="157.55" rerouteNo="0" devices="tripinfo_16" vType="DEFAULT_VEHTYPE" speedFactor="0.99" vaporized=""/>
    <tripinfo id="54" depart="115.00" departLane="256961141#0_0" departPos="5.10" departSpeed="0.00" departDelay="0.65" arrival="248.00" arrivalLane="450554042#0_1" arrivalPos="622.66" arrivalSpeed="16.87" duration="133.00" routeLength="853.74" waitingTime="68.00" waitingCount="1" stopTime="0.00" timeLoss="79.20" rerouteNo="0" devices="tripinfo_54" vType="DEFAULT_VEHTYPE" speedFactor="1.02" vaporized=""/>
    <tripinfo id="47" depart="100.00" departLane="-218680176#1_0" departPos="5.10" departSpeed="0.00" departDelay="0.47" arrival="262.00" arrivalLane="210831347#0_0" arrivalPos="149.88" arrivalSpeed="13.62" duration="162.00" routeLength="560.58" waitingTime="101.00" waitingCount="3" stopTime="0.00" timeLoss="120.70" rerouteNo="0" devices="tripinfo_47" vType="DEFAULT_VEHTYPE" speedFactor="1.01" vaporized=""/>
    <tripinfo id="38" depart="81.00" departLane="E8_0" departPos="5.10" departSpeed="0.00" departDelay="0.53" arrival="265.00" arrivalLane="218680176#0_1" arrivalPos="98.94" arrivalSpeed="14.20" duration="184.00" routeLength="1637.20" waitingTime="51.00" waitingCount="2" stopTime="0.00" timeLoss="78.58" rerouteNo="0" devices="tripinfo_38" vType="DEFAULT_VEHTYPE" speedFactor="1.09" vaporized=""/>
    <tripinfo id="48" depart="102.00" departLane="E8_0" departPos="5.10" departSpeed="0.00" departDelay="0.35" arrival="268.00" arrivalLane="218680176#0_1" arrivalPos="98.94" arrivalSpeed="12.50" duration="166.00" routeLength="1637.20" waitingTime="28.00" waitingCount="1" stopTime="0.00" timeLoss="44.18" rerouteNo="0" devices="tripinfo_48" vType="DEFAULT_VEHTYPE" speedFactor="0.94" vaporized=""/>
    <tripinfo id="7" depart="15.00" departLane="65746828#0_0" departPos="5.10" departSpeed="0.00" departDelay="0.18" arrival="269.00" arrivalLane="218680176#0_1" arrivalPos="98.94" arrivalSpeed="15.54" duration="254.00" routeLength="602.71" waitingTime="198.00" waitingCount="2" stopTime="0.00" timeLoss="215.49" rerouteNo="0" devices="tripinfo_7" vType="DEFAULT_VEHTYPE" speedFactor="1.15" vaporized=""/>
    <tripinfo id="29" depart="63.00" departLane="-226276377#1_0" departPos="5.10" departSpeed="0.00" departDelay="1.59" arrival="270.00" arrivalLane="210831347#0_1" arrivalPos="149.88" arrivalSpeed="12.96" duration="207.00" routeLength="888.52" waitingTime="126.00" waitingCount="1" stopTime="0.00" timeLoss="143.36" rerouteNo="0" devices="tripinfo_29" vType="DEFAULT_VEHTYPE" speedFactor="0.97" vaporized=""/>
    <tripinfo id="53" depart="113.00" departLane="-226276377#1_0" departPos="5.10" departSpeed="0.00" departDelay="0.76" arrival="271.00" arrivalLane="210831347#0_1" arrivalPos="149.88" arrivalSpeed="13.82" duration="158.00" routeLength="888.52" waitingTime="80.00" waitingCount="1" stopTime="0.00" timeLoss="100.53" rerouteNo="0" devices="tripinfo_53" vType="DEFAULT_VEHTYPE" speedFactor="1.06" vaporized=""/>
    <tripinfo id="76" depart="161.00" departLane="-661251539_0" departPos="5.10" departSpeed="0.00" departDelay="0.06" arrival="271.00" arrivalLane="218680176#0_1" arrivalPos="98.94" arrivalSpeed="13.98" duration="110.00" routeLength="1001.21" waitingTime="14.00" waitingCount="2" stopTime="0.00" timeLoss="37.90" rerouteNo="0" devices="tripinfo_76" vType="DEFAULT_VEHTYPE" speedFactor="1.01" vaporized=""/>
    <tripinfo id="74" depart="157.00" departLane="-226276377#1_0" departPos="5.10" departSpeed="0.00" departDelay="0.29" arrival="273.00" arrivalLane="210831345#1_0" arrivalPos="264.29" arrivalSpeed="13.95" duration="116.00" routeLength="977.93" waitingTime="37.00" waitingCount="1" stopTime="0.00" timeLoss="51.12" rerouteNo="0" devices="tripinfo_74" vType="DEFAULT_VEHTYPE" speedFactor="1.06" vaporized=""/>
    <tripinfo id="89" depart="189.00" departLane="-661251539_0" departPos="5.10" departSpeed="0.00" departDelay="0.53" arrival="273.00" arrivalLane="218680176#0_1" arrivalPos="98.94" arrivalSpeed="13.29" duration="84.00" routeLength="1001.21" waitingTime="0.00" waitingCount="0" stopTime="0.00" timeLoss="13.78" rerouteNo="0" devices="tripinfo_89" vType="DEFAULT_VEHTYPE" speedFactor="1.05" vaporized=""/>
    <tripinfo id="70" depart="149.00" departLane="256961141#0_0" departPos="5.10" departSpeed="0.00" departDelay="0.76" arrival="276.00" arrivalLane="218680176#0_1" arrivalPos="98.94" arrivalSpeed="13.56" duration="127.00" routeLength="1207.47" waitingTime="28.00" waitingCount="1" stopTime="0.00" timeLoss="40.40" rerouteNo="0" devices="tripinfo_70" vType="DEFAULT_VEHTYPE" speedFactor="0.98" vaporized=""/>
    <tripinfo id="55" depart="117.00" departLane="978867529_0" departPos="5.10" departSpeed="0.00" departDelay="0.53" arrival="278.00" arrivalLane="210831345#1_1" arrivalPos="264.29" arrivalSpeed="14.07" duration="161.00" routeLength="951.92" waitingTime="85.00" waitingCount="1" stopTime="0.00" timeLoss="96.50" rerouteNo="0" devices="tripinfo_55" vType="DEFAULT_VEHTYPE" speedFactor="1.02" vaporized=""/>
    <tripinfo id="62" depart="132.00" departLane="-218680176#1_0" departPos="5.10" departSpeed="0.00" departDelay="0.71" arrival="280.00" arrivalLane="210831345#1_1" arrivalPos="264.29" arrivalSpeed="14.25" duration="148.00" routeLength="699.94" waitingTime="69.00" waitingCount="3" stopTime="0.00" timeLoss="98.86" rerouteNo="0" devices="tripinfo_62" vType="DEFAULT_VEHTYPE" speedFactor="1.07" vaporized=""/>
    <tripinfo id="5" depart="11.00" departLane="-226276377#1_0" departPos="5.10" departSpeed="0.00" departDelay="0.41" arrival="282.00" arrivalLane="218680176#0_1" arrivalPos="98.94" arrivalSpeed="13.10" duration="271.00" routeLength="1158.55" waitingTime="176.00" waitingCount="1" stopTime="0.00" timeLoss="187.93" rerouteNo="0" devices="tripinfo_5" vType="DEFAULT_VEHTYPE" speedFactor="0.97" vaporized=""/>
    <tripinfo id="92" depart="195.00" departLane="-661251539_0" departPos="5.10" departSpeed="0.00" departDelay="0.18" arrival="285.00" arrivalLane="210831347#0_1" arrivalPos="149.88" arrivalSpeed="12.13" duration="90.00" routeLength="731.18" waitingTime="20.00" waitingCount="1" stopTime="0.00" timeLoss="31.80" rerouteNo="0" devices="tripinfo_92" vType="DEFAULT_VEHTYPE" speedFactor="0.92" vaporized=""/>
    <tripinfo id="88" depart="187.00" departLane="-218680176#1_0" departPos="5.10" departSpeed="0.00" departDelay="0.65" arrival="297.00" arrivalLane="210831347#0_0" arrivalPos="149.88" arrivalSpeed="11.49" duration="110.00" routeLength="560.58" waitingTime="36.00" waitingCount="3" stopTime="0.00" timeLoss="61.63" rerouteNo="0" devices="tripinfo_88" vType="DEFAULT_VEHTYPE" speedFactor="0.88" vaporized=""/>
    <tripinfo id="77" depart="164.00" departLane="-226276377#1_0" departPos="5.10" departSpeed="0.00" departDelay="0.94" arrival="300.00" arrivalLane="210831345#1_0" arrivalPos="264.29" arrivalSpeed="14.45" duration="136.00" routeLength="977.93" waitingTime="53.00" waitingCount="2" stopTime="0.00" timeLoss="72.21" rerouteNo="0" devices="tripinfo_77" vType="DEFAULT_VEHTYPE" speedFactor="1.07" vaporized=""/>
    <tripinfo id="95" depart="202.00" departLane="-661251539_0" departPos="5.10" departSpeed="0.00" departDelay="0.82" arrival="306.00" arrivalLane="210831345#1_0" arrivalPos="264.29" arrivalSpeed="11.78" duration="104.00" routeLength="826.64" waitingTime="21.00" waitingCount="2" stopTime="0.00" timeLoss="37.36" rerouteNo="0" devices="tripinfo_95" vType="DEFAULT_VEHTYPE" speedFactor="0.92" vaporized=""/>
    <tripinfo id="109" depart="231.00" departLane="-226276377#1_0" departPos="5.10" departSpeed="0.00" departDelay="0.18" arrival="311.00" arrivalLane="210831345#1_0" arrivalPos="264.29" arrivalSpeed="12.65" duration="80.00" routeLength="977.93" waitingTime="0.00" waitingCount="0" stopTime="0.00" timeLoss="8.99" rerouteNo="0" devices="tripinfo_109" vType="DEFAULT_VEHTYPE" speedFactor="0.95" vaporized=""/>
    <tripinfo id="121" depart="257.00" departLane="256961141#0_0" departPos="5.10" departSpeed="0.00" departDelay="0.76" arrival="322.00" arrivalLane="450554042#0_0" arrivalPos="622.66" arrivalSpeed="16.29" duration="65.00" routeLength="853.74" waitingTime="0.00" waitingCount="0" stopTime="0.00" timeLoss="8.65" rerouteNo="0" devices="tripinfo_121" vType="DEFAULT_VEHTYPE" speedFactor="0.98" vaporized=""/>
    <tripinfo id="145" depart="308.00" departLane="-218680176#1_0" departPos="5.10" departSpeed="0.00" departDelay="0.94" arrival="326.00" arrivalLane="231177697#0_0" arrivalPos="74.44" arrivalSpeed="14.95" duration="18.00" routeLength="205.97" waitingTime="0.00" waitingCount="0" stopTime="0.00" timeLoss="4.18" rerouteNo="0" devices="tripinfo_145" vType="DEFAULT_VEHTYPE" speedFactor="1.10" vaporized=""/>
    <tripinfo id="2" depart="5.00" departLane="666135205#0_0" departPos="5.10" departSpeed="0.00" departDelay="0.76" arrival="337.00" arrivalLane="231177697#0_0" arrivalPos="74.44" arrivalSpeed="12.50" duration="332.00" routeLength="649.17" waitingTime="264.00" waitingCount="2" stopTime="0.00" timeLoss="279.01" rerouteNo="0" devices="tripinfo_2" vType="DEFAULT_VEHTYPE" speedFactor="0.91" vaporized=""/>
    <tripinfo id="61" depart="130.00" departLane="978867529_0" departPos="5.10" departSpeed="0.00" departDelay="0.82" arrival="339.00" arrivalLane="218680176#0_0" arrivalPos="98.94" arrivalSpeed="12.57" duration="209.00" routeLength="442.15" waitingTime="170.00" waitingCount="1" stopTime="0.00" timeLoss="178.98" rerouteNo="0" devices="tripinfo_61" vType="DEFAULT_VEHTYPE" speedFactor="0.99" vaporized=""/>
    <tripinfo id="31" depart="66.00" departLane="65746828#0_0" departPos="5.10" departSpeed="0.00" departDelay="0.35" arrival="343.00" arrivalLane="231177697#0_0" arrivalPos="74.44" arrivalSpeed="12.07" duration="277.00" routeLength="558.79" waitingTime="216.00" waitingCount="2" stopTime="0.00" timeLoss="231.25" rerouteNo="0" devices="tripinfo_31" vType="DEFAULT_VEHTYPE" speedFactor="0.92" vaporized=""/>
    <tripinfo id="75" depart="159.00" departLane="E8_0" departPos="5.10" departSpeed="0.00" departDelay="0.18" arrival="343.00" arrivalLane="226276377#0_1" arrivalPos="135.52" arrivalSpeed="13.24" duration="184.00" routeLength="784.51" waitingTime="117.00" waitingCount="1" stopTime="0.00" timeLoss="127.06" rerouteNo="0" devices="tripinfo_75" vType="DEFAULT_VEHTYPE" speedFactor="1.01" vaporized=""/>
    <tripinfo id="28" depart="60.00" departLane="-226276377#1_0" departPos="5.10" departSpeed="0.00" departDelay="0.71" arrival="345.00" arrivalLane="231177697#0_0" arrivalPos="74.44" arrivalSpeed="13.56" duration="285.00" routeLength="1114.63" waitingTime="188.00" waitingCount="2" stopTime="0.00" timeLoss="207.08" rerouteNo="0" devices="tripinfo_28" vType="DEFAULT_VEHTYPE" speedFactor="1.01" vaporized=""/>
    <tripinfo id="85" depart="180.00" departLane="E8_0" departPos="5.10" departSpeed="0.00" departDelay="0.00" arrival="345.00" arrivalLane="226276377#0_1" arrivalPos="135.52" arrivalSpeed="12.33" duration="165.00" routeLength="784.51" waitingTime="94.00" waitingCount="1" stopTime="0.00" timeLoss="105.09" rerouteNo="0" devices="tripinfo_85" vType="DEFAULT_VEHTYPE" speedFactor="0.95" vaporized=""/>
    <tripinfo id="44" depart="94.00" departLane="-218680176#1_0" departPos="5.10" departSpeed="0.00" departDelay="0.82" arrival="347.00" arrivalLane="-256961141#1_1" arrivalPos="204.72" arrivalSpeed="14.71" duration="253.00" routeLength="1207.38" waitingTime="161.00" waitingCount="2" stopTime="0.00" timeLoss="178.64" rerouteNo="0" devices="tripinfo_44" vType="DEFAULT_VEHTYPE" speedFactor="1.11" vaporized=""/>
    <tripinfo id="108" depart="229.00" departLane="65746828#0_0" departPos="5.10" departSpeed="0.00" departDelay="0.29" arrival="347.00" arrivalLane="231177697#0_0" arrivalPos="74.44" arrivalSpeed="14.04" duration="118.00" routeLength="558.79" waitingTime="58.00" waitingCount="2" stopTime="0.00" timeLoss="77.82" rerouteNo="0" devices="tripinfo_108" vType="DEFAULT_VEHTYPE" speedFactor="1.05" vaporized=""/>
    <tripinfo id="110" depart="233.00" departLane="E8_0" departPos="5.10" departSpeed="0.00" departDelay="0.06" arrival="348.00" arrivalLane="226276377#0_1" arrivalPos="135.52" arrivalSpeed="12.06" duration="115.00" routeLength="784.51" waitingTime="42.00" waitingCount="1" stopTime="0.00" timeLoss="54.77" rerouteNo="0" devices="tripinfo_110" vType="DEFAULT_VEHTYPE" speedFactor="0.96" vaporized=""/>
    <tripinfo id="116" depart="246.00" departLane="65746828#0_0" departPos="5.10" departSpeed="0.00" departDelay="0.35" arrival="350.00" arrivalLane="231177697#0_0" arrivalPos="74.44" arrivalSpeed="12.92" duration="104.00" routeLength="558.79" waitingTime="40.00" waitingCount="1" stopTime="0.00" timeLoss="60.71" rerouteNo="0" devices="tripinfo_116" vType="DEFAULT_VEHTYPE" speedFactor="0.95" vaporized=""/>
    <tripinfo id="20" depart="43.00" departLane="666135205#0_0" departPos="5.10" departSpeed="0.00" departDelay="0.65" arrival="351.00" arrivalLane="-256961141#1_1" arrivalPos="204.72" arrivalSpeed="13.13" duration="308.00" routeLength="1068.72" waitingTime="218.00" waitingCount="2" stopTime="0.00" timeLoss="235.59" rerouteNo="0" devices="tripinfo_20" vType="DEFAULT_VEHTYPE" speedFactor="1.00" vaporized=""/>
    <tripinfo id="42" depart="89.00" departLane="-661251539_0" departPos="5.10" departSpeed="0.00" departDelay="0.06" arrival="351.00" arrivalLane="153964138#0_0" arrivalPos="337.99" arrivalSpeed="19.02" duration="262.00" routeLength="1239.04" waitingTime="167.00" waitingCount="2" stopTime="0.00" timeLoss="189.40" rerouteNo="0" devices="tripinfo_42" vType="DEFAULT_VEHTYPE" speedFactor="1.19" vaporized=""/>
    <tripinfo id="56" depart="119.00" departLane="256961141#0_0" departPos="5.10" departSpeed="0.00" departDelay="0.41" arrival="352.00" arrivalLane="153964138#0_1" arrivalPos="337.99" arrivalSpeed="16.58" duration="233.00" routeLength="1439.25" waitingTime="127.00" waitingCount="1" stopTime="0.00" timeLoss="141.64" rerouteNo="0" devices="tripinfo_56" vType="DEFAULT_VEHTYPE" speedFactor="1.06" vaporized=""/>
    <tripinfo id="72" depart="153.00" departLane="-661251539_0" departPos="5.10" departSpeed="0.00" departDelay="0.53" arrival="353.00" arrivalLane="153964138#0_2" arrivalPos="337.99" arrivalSpeed="17.38" duration="200.00" routeLength="1239.04" waitingTime="97.00" waitingCount="3" stopTime="0.00" timeLoss="121.20" rerouteNo="0" devices="tripinfo_72" vType="DEFAULT_VEHTYPE" speedFactor="1.08" vaporized=""/>
    <tripinfo id="103" depart="219.00" departLane="-661251539_0" departPos="5.10" departSpeed="0.00" departDelay="0.88" arrival="353.00" arrivalLane="-256961141#1_1" arrivalPos="204.72" arrivalSpeed="13.48" duration="134.00" routeLength="872.91" waitingTime="54.00" waitingCount="2" stopTime="0.00" timeLoss="73.82" rerouteNo="0" devices="tripinfo_103" vType="DEFAULT_VEHTYPE" speedFactor="1.02" vaporized=""/>
    <tripinfo id="84" depart="178.00" departLane="-226276377#1_0" departPos="5.10" departSpeed="0.00" departDelay="0.12" arrival="355.00" arrivalLane="153964138#0_2" arrivalPos="337.99" arrivalSpeed="20.31" duration="177.00" routeLength="1390.33" waitingTime="67.00" waitingCount="3" stopTime="0.00" timeLoss="100.81" rerouteNo="0" devices="tripinfo_84" vType="DEFAULT_VEHTYPE" speedFactor="1.22" vaporized=""/>
    <tripinfo id="25" depart="53.00" departLane="-661251539_0" departPos="5.10" departSpeed="0.00" departDelay="0.06" arrival="356.00" arrivalLane="153964138#0_0" arrivalPos="337.99" arrivalSpeed="15.73" duration="303.00" routeLength="1239.04" waitingTime="191.00" waitingCount="2" stopTime="0.00" timeLoss="214.31" rerouteNo="0" devices="tripinfo_25" vType="DEFAULT_VEHTYPE" speedFactor="0.96" vaporized=""/>
    <tripinfo id="59" depart="125.00" departLane="65746828#0_0" departPos="5.10" departSpeed="0.00" departDelay="0.06" arrival="356.00" arrivalLane="153964138#0_1" arrivalPos="337.99" arrivalSpeed="15.27" duration="231.00" routeLength="834.49" waitingTime="155.00" waitingCount="2" stopTime="0.00" timeLoss="172.42" rerouteNo="0" devices="tripinfo_59" vType="DEFAULT_VEHTYPE" speedFactor="0.97" vaporized=""/>
    <tripinfo id="142" depart="301.00" departLane="256961141#0_0" departPos="5.10" departSpeed="0.00" departDelay="0.29" arrival="359.00" arrivalLane="450554042#0_1" arrivalPos="622.66" arrivalSpeed="16.54" duration="58.00" routeLength="853.74" waitingTime="0.00" waitingCount="0" stopTime="0.00" timeLoss="5.69" rerouteNo="0" devices="tripinfo_142" vType="DEFAULT_VEHTYPE" speedFactor="1.05" vaporized=""/>
    <tripinfo id="132" depart="280.00" departLane="978867529_0" departPos="5.10" departSpeed="0.00" departDelay="0.47" arrival="364.00" arrivalLane="231177697#0_1" arrivalPos="74.44" arrivalSpeed="11.41" duration="84.00" routeLength="437.06" waitingTime="42.00" waitingCount="1" stopTime="0.00" timeLoss="51.62" rerouteNo="0" devices="tripinfo_132" vType="DEFAULT_VEHTYPE" speedFactor="0.89" vaporized=""/>