<?xml version="1.0" encoding="UTF-8"?>

<!-- generated on 2024-09-03 02:41:42 by Eclipse SUMO sumo Version 1.20.0
<configuration xmlns:xsi="http://www.w3.org/2001/XMLSchema-instance" xsi:noNamespaceSchemaLocation="http://sumo.dlr.de/xsd/sumoConfiguration.xsd">

    <input>
        <net-file value="c:\self\School\Master\Disertation\code\RESCO\resco_benchmark\environments/unirii/osm.net.xml.gz"/>
        <route-files value="c:\self\School\Master\Disertation\code\RESCO\resco_benchmark\environments/unirii/osm.passenger.trips.xml"/>
        <additional-files value="c:\self\School\Master\Disertation\code\RESCO\resco_benchmark\environments/unirii/osm.poly.xml.gz"/>
    </input>

    <output>
        <tripinfo-output value="C:\self\School\Master\Disertation\code\RESCO\results\IA2C-tr0-unirii-0-drq_norm-wait_norm\tripinfo_35.xml"/>
        <tripinfo-output.write-unfinished value="true"/>
    </output>

    <processing>
        <ignore-route-errors value="true"/>
        <time-to-teleport value="-1"/>
    </processing>

    <routing>
        <device.rerouting.adaptation-steps value="18"/>
        <device.rerouting.adaptation-interval value="10"/>
    </routing>

    <report>
        <verbose value="true"/>
        <no-warnings value="True"/>
        <duration-log.statistics value="true"/>
        <no-step-log value="True"/>
    </report>

    <traci_server>
        <remote-port value="52193"/>
    </traci_server>

    <random_number>
        <random value="true"/>
    </random_number>

    <gui_only>
        <gui-settings-file value="c:\self\School\Master\Disertation\code\RESCO\resco_benchmark\environments/unirii/osm.view.xml"/>
    </gui_only>

</configuration>
-->

<tripinfos xmlns:xsi="http://www.w3.org/2001/XMLSchema-instance" xsi:noNamespaceSchemaLocation="http://sumo.dlr.de/xsd/tripinfo_file.xsd">
    <tripinfo id="2" depart="5.00" departLane="666135205#0_0" departPos="5.10" departSpeed="0.00" departDelay="0.76" arrival="80.00" arrivalLane="231177697#0_0" arrivalPos="74.44" arrivalSpeed="14.74" duration="75.00" routeLength="649.17" waitingTime="17.00" waitingCount="1" stopTime="0.00" timeLoss="30.61" rerouteNo="0" devices="tripinfo_2" vType="DEFAULT_VEHTYPE" speedFactor="1.08" vaporized=""/>
    <tripinfo id="3" depart="7.00" departLane="E8_0" departPos="5.10" departSpeed="0.00" departDelay="0.65" arrival="95.00" arrivalLane="-256961141#1_0" arrivalPos="204.72" arrivalSpeed="14.31" duration="88.00" routeLength="832.89" waitingTime="20.00" waitingCount="1" stopTime="0.00" timeLoss="32.24" rerouteNo="0" devices="tripinfo_3" vType="DEFAULT_VEHTYPE" speedFactor="1.09" vaporized=""/>
    <tripinfo id="4" depart="9.00" departLane="-661251539_0" departPos="5.10" departSpeed="0.00" departDelay="0.53" arrival="121.00" arrivalLane="-256961141#1_1" arrivalPos="204.72" arrivalSpeed="15.85" duration="112.00" routeLength="872.91" waitingTime="46.00" waitingCount="1" stopTime="0.00" timeLoss="59.01" rerouteNo="0" devices="tripinfo_4" vType="DEFAULT_VEHTYPE" speedFactor="1.15" vaporized=""/>
    <tripinfo id="0" depart="0.00" departLane="65746828#0_0" departPos="5.10" departSpeed="0.00" departDelay="0.00" arrival="124.00" arrivalLane="-256961141#1_1" arrivalPos="204.72" arrivalSpeed="14.14" duration="124.00" routeLength="931.50" waitingTime="47.00" waitingCount="2" stopTime="0.00" timeLoss="63.65" rerouteNo="0" devices="tripinfo_0" vType="DEFAULT_VEHTYPE" speedFactor="1.03" vaporized=""/>
    <tripinfo id="50" depart="106.00" departLane="-218680176#1_0" departPos="5.10" departSpeed="0.00" departDelay="0.12" arrival="127.00" arrivalLane="231177697#0_0" arrivalPos="74.44" arrivalSpeed="12.05" duration="21.00" routeLength="205.97" waitingTime="0.00" waitingCount="0" stopTime="0.00" timeLoss="4.40" rerouteNo="0" devices="tripinfo_50" vType="DEFAULT_VEHTYPE" speedFactor="0.92" vaporized=""/>
    <tripinfo id="30" depart="64.00" departLane="E8_0" departPos="5.10" departSpeed="0.00" departDelay="0.47" arrival="128.00" arrivalLane="226276377#0_1" arrivalPos="135.52" arrivalSpeed="12.89" duration="64.00" routeLength="784.51" waitingTime="0.00" waitingCount="0" stopTime="0.00" timeLoss="6.45" rerouteNo="0" devices="tripinfo_30" vType="DEFAULT_VEHTYPE" speedFactor="1.00" vaporized=""/>
    <tripinfo id="20" depart="43.00" departLane="666135205#0_0" departPos="5.10" departSpeed="0.00" departDelay="0.65" arrival="132.00" arrivalLane="-256961141#1_1" arrivalPos="204.72" arrivalSpeed="14.76" duration="89.00" routeLength="1068.72" waitingTime="11.00" waitingCount="1" stopTime="0.00" timeLoss="23.14" rerouteNo="0" devices="tripinfo_20" vType="DEFAULT_VEHTYPE" speedFactor="1.10" vaporized=""/>
    <tripinfo id="27" depart="58.00" departLane="65746828#0_0" departPos="5.10" departSpeed="0.00" departDelay="0.82" arrival="142.00" arrivalLane="226276377#0_0" arrivalPos="135.52" arrivalSpeed="13.48" duration="84.00" routeLength="841.69" waitingTime="15.00" waitingCount="1" stopTime="0.00" timeLoss="27.92" rerouteNo="0" devices="tripinfo_27" vType="DEFAULT_VEHTYPE" speedFactor="1.01" vaporized=""/>
    <tripinfo id="12" depart="26.00" departLane="E8_0" departPos="5.10" departSpeed="0.00" departDelay="0.59" arrival="145.00" arrivalLane="210831347#0_1" arrivalPos="149.88" arrivalSpeed="12.69" duration="119.00" routeLength="1367.17" waitingTime="3.00" waitingCount="1" stopTime="0.00" timeLoss="18.35" rerouteNo="0" devices="tripinfo_12" vType="DEFAULT_VEHTYPE" speedFactor="0.95" vaporized=""/>
    <tripinfo id="22" depart="47.00" departLane="-218680176#1_0" departPos="5.10" departSpeed="0.00" departDelay="0.41" arrival="152.00" arrivalLane="210831345#1_1" arrivalPos="264.29" arrivalSpeed="13.58" duration="105.00" routeLength="699.94" waitingTime="40.00" waitingCount="2" stopTime="0.00" timeLoss="55.84" rerouteNo="0" devices="tripinfo_22" vType="DEFAULT_VEHTYPE" speedFactor="1.05" vaporized=""/>
    <tripinfo id="18" depart="39.00" departLane="978867529_0" departPos="5.10" departSpeed="0.00" departDelay="0.88" arrival="154.00" arrivalLane="226276377#0_0" arrivalPos="135.52" arrivalSpeed="15.83" duration="115.00" routeLength="1369.55" waitingTime="18.00" waitingCount="2" stopTime="0.00" timeLoss="36.76" rerouteNo="0" devices="tripinfo_18" vType="DEFAULT_VEHTYPE" speedFactor="1.15" vaporized=""/>
    <tripinfo id="23" depart="50.00" departLane="-218680176#1_0" departPos="5.10" departSpeed="0.00" departDelay="1.29" arrival="157.00" arrivalLane="210831345#1_0" arrivalPos="264.29" arrivalSpeed="11.74" duration="107.00" routeLength="699.94" waitingTime="32.00" waitingCount="2" stopTime="0.00" timeLoss="49.90" rerouteNo="0" devices="tripinfo_23" vType="DEFAULT_VEHTYPE" speedFactor="0.91" vaporized=""/>
    <tripinfo id="19" depart="42.00" departLane="978867529_0" departPos="5.10" departSpeed="0.00" departDelay="1.76" arrival="158.00" arrivalLane="226276377#0_0" arrivalPos="135.52" arrivalSpeed="14.37" duration="116.00" routeLength="1369.55" waitingTime="11.00" waitingCount="1" stopTime="0.00" timeLoss="31.17" rerouteNo="0" devices="tripinfo_19" vType="DEFAULT_VEHTYPE" speedFactor="1.07" vaporized=""/>
    <tripinfo id="35" depart="75.00" departLane="-226276377#1_0" departPos="5.10" departSpeed="0.00" departDelay="0.88" arrival="166.00" arrivalLane="450554042#0_0" arrivalPos="622.66" arrivalSpeed="16.30" duration="91.00" routeLength="763.53" waitingTime="30.00" waitingCount="1" stopTime="0.00" timeLoss="42.76" rerouteNo="0" devices="tripinfo_35" vType="DEFAULT_VEHTYPE" speedFactor="1.00" vaporized=""/>
    <tripinfo id="40" depart="85.00" departLane="65746828#0_0" departPos="5.10" departSpeed="0.00" departDelay="0.29" arrival="171.00" arrivalLane="210831345#1_0" arrivalPos="264.29" arrivalSpeed="14.33" duration="86.00" routeLength="446.75" waitingTime="47.00" waitingCount="1" stopTime="0.00" timeLoss="56.27" rerouteNo="0" devices="tripinfo_40" vType="DEFAULT_VEHTYPE" speedFactor="1.09" vaporized=""/>
    <tripinfo id="6" depart="13.00" departLane="-218680176#1_0" departPos="5.10" departSpeed="0.00" departDelay="0.29" arrival="180.00" arrivalLane="153964138#0_2" arrivalPos="337.99" arrivalSpeed="15.87" duration="167.00" routeLength="462.27" waitingTime="126.00" waitingCount="1" stopTime="0.00" timeLoss="136.39" rerouteNo="0" devices="tripinfo_6" vType="DEFAULT_VEHTYPE" speedFactor="0.99" vaporized=""/>
    <tripinfo id="68" depart="144.00" departLane="-218680176#1_0" departPos="5.10" departSpeed="0.00" departDelay="0.00" arrival="189.00" arrivalLane="231177697#0_0" arrivalPos="74.44" arrivalSpeed="11.09" duration="45.00" routeLength="205.97" waitingTime="19.00" waitingCount="1" stopTime="0.00" timeLoss="27.87" rerouteNo="0" devices="tripinfo_68" vType="DEFAULT_VEHTYPE" speedFactor="0.87" vaporized=""/>
    <tripinfo id="14" depart="30.00" departLane="978867529_0" departPos="5.10" departSpeed="0.00" departDelay="0.35" arrival="194.00" arrivalLane="226276377#0_0" arrivalPos="135.52" arrivalSpeed="11.66" duration="164.00" routeLength="1369.55" waitingTime="37.00" waitingCount="2" stopTime="0.00" timeLoss="57.37" rerouteNo="0" devices="tripinfo_14" vType="DEFAULT_VEHTYPE" speedFactor="0.84" vaporized=""/>
    <tripinfo id="79" depart="168.00" departLane="-231177697#2_0" departPos="5.10" departSpeed="0.00" departDelay="0.71" arrival="202.00" arrivalLane="153964138#0_0" arrivalPos="337.99" arrivalSpeed="16.59" duration="34.00" routeLength="417.38" waitingTime="0.00" waitingCount="0" stopTime="0.00" timeLoss="6.85" rerouteNo="0" devices="tripinfo_79" vType="DEFAULT_VEHTYPE" speedFactor="1.00" vaporized=""/>
    <tripinfo id="31" depart="66.00" departLane="65746828#0_0" departPos="5.10" departSpeed="0.00" departDelay="0.35" arrival="212.00" arrivalLane="231177697#0_0" arrivalPos="74.44" arrivalSpeed="12.42" duration="146.00" routeLength="558.79" waitingTime="91.00" waitingCount="1" stopTime="0.00" timeLoss="102.05" rerouteNo="0" devices="tripinfo_31" vType="DEFAULT_VEHTYPE" speedFactor="0.94" vaporized=""/>
    <tripinfo id="61" depart="130.00" departLane="978867529_0" departPos="5.10" departSpeed="0.00" departDelay="0.82" arrival="216.00" arrivalLane="218680176#0_0" arrivalPos="98.94" arrivalSpeed="14.71" duration="86.00" routeLength="442.15" waitingTime="48.00" waitingCount="1" stopTime="0.00" timeLoss="59.20" rerouteNo="0" devices="tripinfo_61" vType="DEFAULT_VEHTYPE" speedFactor="1.11" vaporized=""/>
    <tripinfo id="75" depart="159.00" departLane="E8_0" departPos="5.10" departSpeed="0.00" departDelay="0.18" arrival="221.00" arrivalLane="226276377#0_1" arrivalPos="135.52" arrivalSpeed="13.21" duration="62.00" routeLength="784.51" waitingTime="0.00" waitingCount="0" stopTime="0.00" timeLoss="5.88" rerouteNo="0" devices="tripinfo_75" vType="DEFAULT_VEHTYPE" speedFactor="1.01" vaporized=""/>
    <tripinfo id="9" depart="20.00" departLane="978867529_0" departPos="5.10" departSpeed="0.00" departDelay="0.94" arrival="223.00" arrivalLane="-256961141#1_1" arrivalPos="204.72" arrivalSpeed="13.24" duration="203.00" routeLength="1459.36" waitingTime="86.00" waitingCount="3" stopTime="0.00" timeLoss="111.18" rerouteNo="0" devices="tripinfo_9" vType="DEFAULT_VEHTYPE" speedFactor="1.05" vaporized=""/>
    <tripinfo id="13" depart="28.00" departLane="-218680176#1_0" departPos="5.10" departSpeed="0.00" departDelay="0.47" arrival="225.00" arrivalLane="-256961141#1_1" arrivalPos="204.72" arrivalSpeed="13.94" duration="197.00" routeLength="1207.38" waitingTime="93.00" waitingCount="3" stopTime="0.00" timeLoss="119.72" rerouteNo="0" devices="tripinfo_13" vType="DEFAULT_VEHTYPE" speedFactor="1.07" vaporized=""/>
    <tripinfo id="41" depart="88.00" departLane="65746828#0_0" departPos="5.10" departSpeed="0.00" departDelay="1.18" arrival="225.00" arrivalLane="450554042#0_0" arrivalPos="622.66" arrivalSpeed="16.54" duration="137.00" routeLength="1340.72" waitingTime="44.00" waitingCount="1" stopTime="0.00" timeLoss="57.47" rerouteNo="0" devices="tripinfo_41" vType="DEFAULT_VEHTYPE" speedFactor="1.05" vaporized=""/>
    <tripinfo id="57" depart="121.00" departLane="E8_0" departPos="5.10" departSpeed="0.00" departDelay="0.29" arrival="228.00" arrivalLane="39907424_0" arrivalPos="316.44" arrivalSpeed="13.94" duration="107.00" routeLength="1303.68" waitingTime="8.00" waitingCount="1" stopTime="0.00" timeLoss="23.21" rerouteNo="0" devices="tripinfo_57" vType="DEFAULT_VEHTYPE" speedFactor="1.09" vaporized=""/>
    <tripinfo id="69" depart="147.00" departLane="666135205#0_0" departPos="5.10" departSpeed="0.00" departDelay="0.88" arrival="228.00" arrivalLane="153964138#0_2" arrivalPos="337.99" arrivalSpeed="16.61" duration="81.00" routeLength="924.87" waitingTime="6.00" waitingCount="1" stopTime="0.00" timeLoss="20.10" rerouteNo="0" devices="tripinfo_69" vType="DEFAULT_VEHTYPE" speedFactor="1.04" vaporized=""/>
    <tripinfo id="11" depart="24.00" departLane="-661251539_0" departPos="5.10" departSpeed="0.00" departDelay="0.71" arrival="229.00" arrivalLane="153964138#0_1" arrivalPos="337.99" arrivalSpeed="17.18" duration="205.00" routeLength="1239.04" waitingTime="102.00" waitingCount="2" stopTime="0.00" timeLoss="123.51" rerouteNo="0" devices="tripinfo_11" vType="DEFAULT_VEHTYPE" speedFactor="1.06" vaporized=""/>
    <tripinfo id="49" depart="105.00" departLane="E8_0" departPos="5.10" departSpeed="0.00" departDelay="1.24" arrival="231.00" arrivalLane="39907424_0" arrivalPos="316.44" arrivalSpeed="13.17" duration="126.00" routeLength="1303.68" waitingTime="19.00" waitingCount="1" stopTime="0.00" timeLoss="37.63" rerouteNo="0" devices="tripinfo_49" vType="DEFAULT_VEHTYPE" speedFactor="1.03" vaporized=""/>
    <tripinfo id="25" depart="53.00" departLane="-661251539_0" departPos="5.10" departSpeed="0.00" departDelay="0.06" arrival="232.00" arrivalLane="153964138#0_0" arrivalPos="337.99" arrivalSpeed="14.72" duration="179.00" routeLength="1239.04" waitingTime="68.00" waitingCount="1" stopTime="0.00" timeLoss="88.92" rerouteNo="0" devices="tripinfo_25" vType="DEFAULT_VEHTYPE" speedFactor="0.95" vaporized=""/>
    <tripinfo id="85" depart="180.00" departLane="E8_0" departPos="5.10" departSpeed="0.00" departDelay="0.00" arrival="232.00" arrivalLane="226276377#0_1" arrivalPos="135.52" arrivalSpeed="17.27" duration="52.00" routeLength="784.51" waitingTime="0.00" waitingCount="0" stopTime="0.00" timeLoss="6.00" rerouteNo="0" devices="tripinfo_85" vType="DEFAULT_VEHTYPE" speedFactor="1.26" vaporized=""/>
    <tripinfo id="10" depart="23.00" departLane="978867529_0" departPos="5.10" departSpeed="0.00" departDelay="1.82" arrival="238.00" arrivalLane="231177697#0_1" arrivalPos="74.44" arrivalSpeed="11.98" duration="215.00" routeLength="437.06" waitingTime="175.00" waitingCount="1" stopTime="0.00" timeLoss="184.17" rerouteNo="0" devices="tripinfo_10" vType="DEFAULT_VEHTYPE" speedFactor="0.92" vaporized=""/>
    <tripinfo id="15" depart="33.00" departLane="978867529_0" departPos="5.10" departSpeed="0.00" departDelay="1.24" arrival="240.00" arrivalLane="231177697#0_1" arrivalPos="74.44" arrivalSpeed="12.93" duration="207.00" routeLength="437.06" waitingTime="168.00" waitingCount="1" stopTime="0.00" timeLoss="177.37" rerouteNo="0" devices="tripinfo_15" vType="DEFAULT_VEHTYPE" speedFactor="0.96" vaporized=""/>
    <tripinfo id="7" depart="15.00" departLane="65746828#0_0" departPos="5.10" departSpeed="0.00" departDelay="0.18" arrival="242.00" arrivalLane="218680176#0_1" arrivalPos="98.94" arrivalSpeed="12.08" duration="227.00" routeLength="602.71" waitingTime="163.00" waitingCount="2" stopTime="0.00" timeLoss="179.47" rerouteNo="0" devices="tripinfo_7" vType="DEFAULT_VEHTYPE" speedFactor="0.94" vaporized=""/>
    <tripinfo id="32" depart="68.00" departLane="978867529_0" departPos="5.10" departSpeed="0.00" departDelay="0.24" arrival="242.00" arrivalLane="231177697#0_1" arrivalPos="74.44" arrivalSpeed="15.08" duration="174.00" routeLength="437.06" waitingTime="133.00" waitingCount="1" stopTime="0.00" timeLoss="147.37" rerouteNo="0" devices="tripinfo_32" vType="DEFAULT_VEHTYPE" speedFactor="1.09" vaporized=""/>
    <tripinfo id="17" depart="36.00" departLane="-661251539_0" departPos="5.10" departSpeed="0.00" departDelay="0.00" arrival="243.00" arrivalLane="218680176#0_1" arrivalPos="98.94" arrivalSpeed="13.42" duration="207.00" routeLength="1001.21" waitingTime="114.00" waitingCount="3" stopTime="0.00" timeLoss="139.53" rerouteNo="0" devices="tripinfo_17" vType="DEFAULT_VEHTYPE" speedFactor="1.08" vaporized=""/>
    <tripinfo id="78" depart="166.00" departLane="-661251539_0" departPos="5.10" departSpeed="0.00" departDelay="0.82" arrival="243.00" arrivalLane="226276377#0_0" arrivalPos="135.52" arrivalSpeed="10.70" duration="77.00" routeLength="783.10" waitingTime="1.00" waitingCount="1" stopTime="0.00" timeLoss="13.51" rerouteNo="0" devices="tripinfo_78" vType="DEFAULT_VEHTYPE" speedFactor="0.86" vaporized=""/>
    <tripinfo id="51" depart="108.00" departLane="666135205#0_0" departPos="5.10" departSpeed="0.00" departDelay="0.00" arrival="245.00" arrivalLane="218680176#0_1" arrivalPos="98.94" arrivalSpeed="12.87" duration="137.00" routeLength="693.09" waitingTime="68.00" waitingCount="2" stopTime="0.00" timeLoss="83.63" rerouteNo="0" devices="tripinfo_51" vType="DEFAULT_VEHTYPE" speedFactor="0.96" vaporized=""/>
    <tripinfo id="47" depart="100.00" departLane="-218680176#1_0" departPos="5.10" departSpeed="0.00" departDelay="0.47" arrival="246.00" arrivalLane="210831347#0_0" arrivalPos="149.88" arrivalSpeed="10.41" duration="146.00" routeLength="560.58" waitingTime="84.00" waitingCount="1" stopTime="0.00" timeLoss="94.95" rerouteNo="0" devices="tripinfo_47" vType="DEFAULT_VEHTYPE" speedFactor="0.83" vaporized=""/>
    <tripinfo id="60" depart="128.00" departLane="666135205#0_0" departPos="5.10" departSpeed="0.00" departDelay="0.94" arrival="247.00" arrivalLane="218680176#0_1" arrivalPos="98.94" arrivalSpeed="15.70" duration="119.00" routeLength="693.09" waitingTime="52.00" waitingCount="1" stopTime="0.00" timeLoss="74.19" rerouteNo="0" devices="tripinfo_60" vType="DEFAULT_VEHTYPE" speedFactor="1.16" vaporized=""/>
    <tripinfo id="88" depart="187.00" departLane="-218680176#1_0" departPos="5.10" departSpeed="0.00" departDelay="0.65" arrival="248.00" arrivalLane="210831347#0_0" arrivalPos="149.88" arrivalSpeed="16.32" duration="61.00" routeLength="560.58" waitingTime="9.00" waitingCount="1" stopTime="0.00" timeLoss="25.44" rerouteNo="0" devices="tripinfo_88" vType="DEFAULT_VEHTYPE" speedFactor="1.20" vaporized=""/>
    <tripinfo id="46" depart="98.00" departLane="978867529_0" departPos="5.10" departSpeed="0.00" departDelay="0.59" arrival="256.00" arrivalLane="210831347#0_0" arrivalPos="149.88" arrivalSpeed="11.68" duration="158.00" routeLength="812.56" waitingTime="68.00" waitingCount="2" stopTime="0.00" timeLoss="93.38" rerouteNo="0" devices="tripinfo_46" vType="DEFAULT_VEHTYPE" speedFactor="0.86" vaporized=""/>
    <tripinfo id="95" depart="202.00" departLane="-661251539_0" departPos="5.10" departSpeed="0.00" departDelay="0.82" arrival="261.00" arrivalLane="210831345#1_0" arrivalPos="264.29" arrivalSpeed="17.28" duration="59.00" routeLength="826.64" waitingTime="0.00" waitingCount="0" stopTime="0.00" timeLoss="10.87" rerouteNo="0" devices="tripinfo_95" vType="DEFAULT_VEHTYPE" speedFactor="1.27" vaporized=""/>
    <tripinfo id="38" depart="81.00" departLane="E8_0" departPos="5.10" departSpeed="0.00" departDelay="0.53" arrival="265.00" arrivalLane="218680176#0_1" arrivalPos="98.94" arrivalSpeed="13.75" duration="184.00" routeLength="1637.20" waitingTime="55.00" waitingCount="1" stopTime="0.00" timeLoss="71.68" rerouteNo="0" devices="tripinfo_38" vType="DEFAULT_VEHTYPE" speedFactor="1.02" vaporized=""/>
    <tripinfo id="43" depart="92.00" departLane="E8_0" departPos="5.10" departSpeed="0.00" departDelay="0.94" arrival="270.00" arrivalLane="218680176#0_1" arrivalPos="98.94" arrivalSpeed="11.91" duration="178.00" routeLength="1637.20" waitingTime="33.00" waitingCount="1" stopTime="0.00" timeLoss="49.33" rerouteNo="0" devices="tripinfo_43" vType="DEFAULT_VEHTYPE" speedFactor="0.89" vaporized=""/>
    <tripinfo id="48" depart="102.00" departLane="E8_0" departPos="5.10" departSpeed="0.00" departDelay="0.35" arrival="272.00" arrivalLane="218680176#0_1" arrivalPos="98.94" arrivalSpeed="12.54" duration="170.00" routeLength="1637.20" waitingTime="25.00" waitingCount="3" stopTime="0.00" timeLoss="53.04" rerouteNo="0" devices="tripinfo_48" vType="DEFAULT_VEHTYPE" speedFactor="0.98" vaporized=""/>
    <tripinfo id="70" depart="149.00" departLane="256961141#0_0" departPos="5.10" departSpeed="0.00" departDelay="0.76" arrival="274.00" arrivalLane="218680176#0_1" arrivalPos="98.94" arrivalSpeed="14.36" duration="125.00" routeLength="1207.47" waitingTime="23.00" waitingCount="1" stopTime="0.00" timeLoss="45.98" rerouteNo="0" devices="tripinfo_70" vType="DEFAULT_VEHTYPE" speedFactor="1.08" vaporized=""/>
    <tripinfo id="71" depart="151.00" departLane="-231177697#2_0" departPos="5.10" departSpeed="0.00" departDelay="0.65" arrival="275.00" arrivalLane="39907424_0" arrivalPos="316.44" arrivalSpeed="13.69" duration="124.00" routeLength="961.15" waitingTime="39.00" waitingCount="1" stopTime="0.00" timeLoss="56.10" rerouteNo="0" devices="tripinfo_71" vType="DEFAULT_VEHTYPE" speedFactor="1.00" vaporized=""/>
    <tripinfo id="76" depart="161.00" departLane="-661251539_0" departPos="5.10" departSpeed="0.00" departDelay="0.06" arrival="275.00" arrivalLane="218680176#0_1" arrivalPos="98.94" arrivalSpeed="12.81" duration="114.00" routeLength="1001.21" waitingTime="20.00" waitingCount="1" stopTime="0.00" timeLoss="41.61" rerouteNo="0" devices="tripinfo_76" vType="DEFAULT_VEHTYPE" speedFactor="1.01" vaporized=""/>
    <tripinfo id="89" depart="189.00" departLane="-661251539_0" departPos="5.10" departSpeed="0.00" departDelay="0.53" arrival="277.00" arrivalLane="218680176#0_1" arrivalPos="98.94" arrivalSpeed="15.70" duration="88.00" routeLength="1001.21" waitingTime="0.00" waitingCount="0" stopTime="0.00" timeLoss="23.59" rerouteNo="0" devices="tripinfo_89" vType="DEFAULT_VEHTYPE" speedFactor="1.14" vaporized=""/>
    <tripinfo id="64" depart="136.00" departLane="978867529_0" departPos="5.10" departSpeed="0.00" departDelay="0.47" arrival="282.00" arrivalLane="39907424_0" arrivalPos="316.44" arrivalSpeed="12.60" duration="146.00" routeLength="1216.15" waitingTime="35.00" waitingCount="2" stopTime="0.00" timeLoss="61.00" rerouteNo="0" devices="tripinfo_64" vType="DEFAULT_VEHTYPE" speedFactor="0.97" vaporized=""/>
    <tripinfo id="45" depart="97.00" departLane="-218680176#1_0" departPos="5.10" departSpeed="0.00" departDelay="1.71" arrival="291.00" arrivalLane="226276377#0_0" arrivalPos="135.52" arrivalSpeed="13.74" duration="194.00" routeLength="1117.57" waitingTime="101.00" waitingCount="2" stopTime="0.00" timeLoss="119.61" rerouteNo="0" devices="tripinfo_45" vType="DEFAULT_VEHTYPE" speedFactor="1.01" vaporized=""/>
    <tripinfo id="114" depart="242.00" departLane="-226276377#1_0" departPos="5.10" departSpeed="0.00" departDelay="0.59" arrival="291.00" arrivalLane="450554042#0_0" arrivalPos="622.66" arrivalSpeed="18.19" duration="49.00" routeLength="763.53" waitingTime="0.00" waitingCount="0" stopTime="0.00" timeLoss="7.25" rerouteNo="0" devices="tripinfo_114" vType="DEFAULT_VEHTYPE" speedFactor="1.16" vaporized=""/>
    <tripinfo id="86" depart="183.00" departLane="256961141#0_0" departPos="5.10" departSpeed="0.00" departDelay="0.88" arrival="292.00" arrivalLane="39907424_0" arrivalPos="316.44" arrivalSpeed="12.27" duration="109.00" routeLength="873.95" waitingTime="27.00" waitingCount="2" stopTime="0.00" timeLoss="41.57" rerouteNo="0" devices="tripinfo_86" vType="DEFAULT_VEHTYPE" speedFactor="0.91" vaporized=""/>
    <tripinfo id="58" depart="123.00" departLane="-231177697#2_0" departPos="5.10" departSpeed="0.00" departDelay="0.18" arrival="294.00" arrivalLane="226276377#0_0" arrivalPos="135.52" arrivalSpeed="12.65" duration="171.00" routeLength="1114.55" waitingTime="66.00" waitingCount="4" stopTime="0.00" timeLoss="95.62" rerouteNo="0" devices="tripinfo_58" vType="DEFAULT_VEHTYPE" speedFactor="1.00" vaporized=""/>
    <tripinfo id="117" depart="248.00" departLane="-231177697#2_0" departPos="5.10" departSpeed="0.00" departDelay="0.24" arrival="295.00" arrivalLane="153964138#0_0" arrivalPos="337.99" arrivalSpeed="18.66" duration="47.00" routeLength="417.38" waitingTime="13.00" waitingCount="1" stopTime="0.00" timeLoss="24.73" rerouteNo="0" devices="tripinfo_117" vType="DEFAULT_VEHTYPE" speedFactor="1.19" vaporized=""/>
    <tripinfo id="52" depart="111.00" departLane="-231177697#2_0" departPos="5.10" departSpeed="0.00" departDelay="0.88" arrival="296.00" arrivalLane="226276377#0_0" arrivalPos="135.52" arrivalSpeed="14.20" duration="185.00" routeLength="1114.55" waitingTime="78.00" waitingCount="3" stopTime="0.00" timeLoss="111.73" rerouteNo="0" devices="tripinfo_52" vType="DEFAULT_VEHTYPE" speedFactor="1.03" vaporized=""/>
    <tripinfo id="80" depart="170.00" departLane="-218680176#1_0" departPos="5.10" departSpeed="0.00" departDelay="0.59" arrival="299.00" arrivalLane="226276377#0_0" arrivalPos="135.52" arrivalSpeed="13.55" duration="129.00" routeLength="1117.57" waitingTime="25.00" waitingCount="2" stopTime="0.00" timeLoss="56.86" rerouteNo="0" devices="tripinfo_80" vType="DEFAULT_VEHTYPE" speedFactor="1.05" vaporized=""/>
    <tripinfo id="91" depart="193.00" departLane="E8_0" departPos="5.10" departSpeed="0.00" departDelay="0.29" arrival="300.00" arrivalLane="-256961141#1_0" arrivalPos="204.72" arrivalSpeed="11.18" duration="107.00" routeLength="832.89" waitingTime="26.00" waitingCount="1" stopTime="0.00" timeLoss="36.76" rerouteNo="0" devices="tripinfo_91" vType="DEFAULT_VEHTYPE" speedFactor="0.87" vaporized=""/>
    <tripinfo id="115" depart="244.00" departLane="-218680176#1_0" departPos="5.10" departSpeed="0.00" departDelay="0.47" arrival="304.00" arrivalLane="153964138#0_2" arrivalPos="337.99" arrivalSpeed="16.53" duration="60.00" routeLength="462.27" waitingTime="22.00" waitingCount="1" stopTime="0.00" timeLoss="31.57" rerouteNo="0" devices="tripinfo_115" vType="DEFAULT_VEHTYPE" speedFactor="1.05" vaporized=""/>
    <tripinfo id="128" depart="272.00" departLane="-218680176#1_0" departPos="5.10" departSpeed="0.00" departDelay="0.94" arrival="307.00" arrivalLane="153964138#0_2" arrivalPos="337.99" arrivalSpeed="15.94" duration="35.00" routeLength="462.27" waitingTime="0.00" waitingCount="0" stopTime="0.00" timeLoss="4.48" rerouteNo="0" devices="tripinfo_128" vType="DEFAULT_VEHTYPE" speedFactor="0.97" vaporized=""/>
    <tripinfo id="92" depart="195.00" departLane="-661251539_0" departPos="5.10" departSpeed="0.00" departDelay="0.18" arrival="319.00" arrivalLane="210831347#0_1" arrivalPos="149.88" arrivalSpeed="14.11" duration="124.00" routeLength="731.18" waitingTime="61.00" waitingCount="1" stopTime="0.00" timeLoss="72.35" rerouteNo="0" devices="tripinfo_92" vType="DEFAULT_VEHTYPE" speedFactor="1.05" vaporized=""/>
    <tripinfo id="113" depart="240.00" departLane="256961141#0_0" departPos="5.10" departSpeed="0.00" departDelay="0.71" arrival="319.00" arrivalLane="39907424_0" arrivalPos="316.44" arrivalSpeed="12.11" duration="79.00" routeLength="873.95" waitingTime="0.00" waitingCount="0" stopTime="0.00" timeLoss="10.89" rerouteNo="0" devices="tripinfo_113" vType="DEFAULT_VEHTYPE" speedFactor="0.89" vaporized=""/>
    <tripinfo id="63" depart="135.00" departLane="-218680176#1_0" departPos="5.10" departSpeed="0.00" departDelay="1.59" arrival="320.00" arrivalLane="450554042#0_0" arrivalPos="622.66" arrivalSpeed="17.51" duration="185.00" routeLength="1616.60" waitingTime="64.00" waitingCount="2" stopTime="0.00" timeLoss="86.90" rerouteNo="0" devices="tripinfo_63" vType="DEFAULT_VEHTYPE" speedFactor="1.05" vaporized=""/>
    <tripinfo id="106" depart="225.00" departLane="256961141#0_0" departPos="5.10" departSpeed="0.00" departDelay="0.53" arrival="322.00" arrivalLane="210831347#0_1" arrivalPos="149.88" arrivalSpeed="12.59" duration="97.00" routeLength="937.44" waitingTime="11.00" waitingCount="2" stopTime="0.00" timeLoss="26.69" rerouteNo="0" devices="tripinfo_106" vType="DEFAULT_VEHTYPE" speedFactor="0.92" vaporized=""/>
    <tripinfo id="26" depart="56.00" departLane="-231177697#2_0" departPos="5.10" departSpeed="0.00" departDelay="0.94" arrival="323.00" arrivalLane="450554042#0_0" arrivalPos="622.66" arrivalSpeed="15.64" duration="267.00" routeLength="1613.58" waitingTime="132.00" waitingCount="2" stopTime="0.00" timeLoss="161.49" rerouteNo="0" devices="tripinfo_26" vType="DEFAULT_VEHTYPE" speedFactor="0.98" vaporized=""/>
    <tripinfo id="99" depart="210.00" departLane="E8_0" departPos="5.10" departSpeed="0.00" departDelay="0.35" arrival="325.00" arrivalLane="39907424_0" arrivalPos="316.44" arrivalSpeed="17.83" duration="115.00" routeLength="1303.68" waitingTime="23.00" waitingCount="1" stopTime="0.00" timeLoss="43.55" rerouteNo="0" devices="tripinfo_99" vType="DEFAULT_VEHTYPE" speedFactor="1.29" vaporized=""/>
    <tripinfo id="62" depart="132.00" departLane="-218680176#1_0" departPos="5.10" departSpeed="0.00" departDelay="0.71" arrival="327.00" arrivalLane="210831345#1_1" arrivalPos="264.29" arrivalSpeed="13.72" duration="195.00" routeLength="699.94" waitingTime="134.00" waitingCount="1" stopTime="0.00" timeLoss="145.89" rerouteNo="0" devices="tripinfo_62" vType="DEFAULT_VEHTYPE" speedFactor="1.05" vaporized=""/>
    <tripinfo id="104" depart="222.00" departLane="-661251539_0" departPos="5.10" departSpeed="0.00" departDelay="1.76" arrival="327.00" arrivalLane="450554042#0_0" arrivalPos="622.66" arrivalSpeed="14.42" duration="105.00" routeLength="1282.13" waitingTime="0.00" waitingCount="0" stopTime="0.00" timeLoss="15.69" rerouteNo="0" devices="tripinfo_104" vType="DEFAULT_VEHTYPE" speedFactor="0.91" vaporized=""/>