<?xml version="1.0" encoding="UTF-8"?>

<!-- generated on 2024-09-03 02:36:25 by Eclipse SUMO sumo Version 1.20.0
<configuration xmlns:xsi="http://www.w3.org/2001/XMLSchema-instance" xsi:noNamespaceSchemaLocation="http://sumo.dlr.de/xsd/sumoConfiguration.xsd">

    <input>
        <net-file value="c:\self\School\Master\Disertation\code\RESCO\resco_benchmark\environments/unirii/osm.net.xml.gz"/>
        <route-files value="c:\self\School\Master\Disertation\code\RESCO\resco_benchmark\environments/unirii/osm.passenger.trips.xml"/>
        <additional-files value="c:\self\School\Master\Disertation\code\RESCO\resco_benchmark\environments/unirii/osm.poly.xml.gz"/>
    </input>

    <output>
        <tripinfo-output value="C:\self\School\Master\Disertation\code\RESCO\results\IA2C-tr0-unirii-0-drq_norm-wait_norm\tripinfo_6.xml"/>
        <tripinfo-output.write-unfinished value="true"/>
    </output>

    <processing>
        <ignore-route-errors value="true"/>
        <time-to-teleport value="-1"/>
    </processing>

    <routing>
        <device.rerouting.adaptation-steps value="18"/>
        <device.rerouting.adaptation-interval value="10"/>
    </routing>

    <report>
        <verbose value="true"/>
        <no-warnings value="True"/>
        <duration-log.statistics value="true"/>
        <no-step-log value="True"/>
    </report>

    <traci_server>
        <remote-port value="51839"/>
    </traci_server>

    <random_number>
        <random value="true"/>
    </random_number>

    <gui_only>
        <gui-settings-file value="c:\self\School\Master\Disertation\code\RESCO\resco_benchmark\environments/unirii/osm.view.xml"/>
    </gui_only>

</configuration>
-->

<tripinfos xmlns:xsi="http://www.w3.org/2001/XMLSchema-instance" xsi:noNamespaceSchemaLocation="http://sumo.dlr.de/xsd/tripinfo_file.xsd">
    <tripinfo id="10" depart="22.00" departLane="978867529_0" departPos="5.10" departSpeed="0.00" departDelay="0.82" arrival="89.00" arrivalLane="231177697#0_1" arrivalPos="74.44" arrivalSpeed="10.51" duration="67.00" routeLength="437.06" waitingTime="25.00" waitingCount="1" stopTime="0.00" timeLoss="33.12" rerouteNo="0" devices="tripinfo_10" vType="DEFAULT_VEHTYPE" speedFactor="0.84" vaporized=""/>
    <tripinfo id="15" depart="33.00" departLane="978867529_0" departPos="5.10" departSpeed="0.00" departDelay="1.24" arrival="91.00" arrivalLane="231177697#0_1" arrivalPos="74.44" arrivalSpeed="11.81" duration="58.00" routeLength="437.06" waitingTime="16.00" waitingCount="1" stopTime="0.00" timeLoss="26.50" rerouteNo="0" devices="tripinfo_15" vType="DEFAULT_VEHTYPE" speedFactor="0.91" vaporized=""/>
    <tripinfo id="4" depart="9.00" departLane="-661251539_0" departPos="5.10" departSpeed="0.00" departDelay="0.53" arrival="99.00" arrivalLane="-256961141#1_1" arrivalPos="204.72" arrivalSpeed="12.16" duration="90.00" routeLength="872.91" waitingTime="15.00" waitingCount="1" stopTime="0.00" timeLoss="26.88" rerouteNo="0" devices="tripinfo_4" vType="DEFAULT_VEHTYPE" speedFactor="0.96" vaporized=""/>
    <tripinfo id="0" depart="0.00" departLane="65746828#0_0" departPos="5.10" departSpeed="0.00" departDelay="0.00" arrival="102.00" arrivalLane="-256961141#1_1" arrivalPos="204.72" arrivalSpeed="12.26" duration="102.00" routeLength="931.50" waitingTime="20.00" waitingCount="2" stopTime="0.00" timeLoss="34.13" rerouteNo="0" devices="tripinfo_0" vType="DEFAULT_VEHTYPE" speedFactor="0.92" vaporized=""/>
    <tripinfo id="32" depart="68.00" departLane="978867529_0" departPos="5.10" departSpeed="0.00" departDelay="0.24" arrival="102.00" arrivalLane="231177697#0_1" arrivalPos="74.44" arrivalSpeed="13.63" duration="34.00" routeLength="437.06" waitingTime="0.00" waitingCount="0" stopTime="0.00" timeLoss="5.06" rerouteNo="0" devices="tripinfo_32" vType="DEFAULT_VEHTYPE" speedFactor="0.99" vaporized=""/>
    <tripinfo id="16" depart="34.00" departLane="256961141#0_0" departPos="5.10" departSpeed="0.00" departDelay="0.12" arrival="104.00" arrivalLane="450554042#0_0" arrivalPos="622.66" arrivalSpeed="13.52" duration="70.00" routeLength="853.74" waitingTime="0.00" waitingCount="0" stopTime="0.00" timeLoss="5.19" rerouteNo="0" devices="tripinfo_16" vType="DEFAULT_VEHTYPE" speedFactor="0.84" vaporized=""/>
    <tripinfo id="2" depart="5.00" departLane="666135205#0_0" departPos="5.10" departSpeed="0.00" departDelay="0.76" arrival="112.00" arrivalLane="231177697#0_0" arrivalPos="74.44" arrivalSpeed="12.23" duration="107.00" routeLength="649.17" waitingTime="43.00" waitingCount="1" stopTime="0.00" timeLoss="52.59" rerouteNo="0" devices="tripinfo_2" vType="DEFAULT_VEHTYPE" speedFactor="0.89" vaporized=""/>
    <tripinfo id="40" depart="85.00" departLane="65746828#0_0" departPos="5.10" departSpeed="0.00" departDelay="0.29" arrival="116.00" arrivalLane="210831345#1_0" arrivalPos="264.29" arrivalSpeed="15.80" duration="31.00" routeLength="446.75" waitingTime="0.00" waitingCount="0" stopTime="0.00" timeLoss="4.02" rerouteNo="0" devices="tripinfo_40" vType="DEFAULT_VEHTYPE" speedFactor="1.21" vaporized=""/>
    <tripinfo id="3" depart="7.00" departLane="E8_0" departPos="5.10" departSpeed="0.00" departDelay="0.65" arrival="121.00" arrivalLane="-256961141#1_0" arrivalPos="204.72" arrivalSpeed="13.24" duration="114.00" routeLength="832.89" waitingTime="44.00" waitingCount="1" stopTime="0.00" timeLoss="54.86" rerouteNo="0" devices="tripinfo_3" vType="DEFAULT_VEHTYPE" speedFactor="1.03" vaporized=""/>
    <tripinfo id="27" depart="58.00" departLane="65746828#0_0" departPos="5.10" departSpeed="0.00" departDelay="0.82" arrival="126.00" arrivalLane="226276377#0_0" arrivalPos="135.52" arrivalSpeed="12.92" duration="68.00" routeLength="841.69" waitingTime="0.00" waitingCount="0" stopTime="0.00" timeLoss="9.67" rerouteNo="0" devices="tripinfo_27" vType="DEFAULT_VEHTYPE" speedFactor="0.96" vaporized=""/>
    <tripinfo id="30" depart="64.00" departLane="E8_0" departPos="5.10" departSpeed="0.00" departDelay="0.47" arrival="145.00" arrivalLane="226276377#0_1" arrivalPos="135.52" arrivalSpeed="11.39" duration="81.00" routeLength="784.51" waitingTime="2.00" waitingCount="1" stopTime="0.00" timeLoss="12.98" rerouteNo="0" devices="tripinfo_30" vType="DEFAULT_VEHTYPE" speedFactor="0.84" vaporized=""/>
    <tripinfo id="35" depart="75.00" departLane="-226276377#1_0" departPos="5.10" departSpeed="0.00" departDelay="0.88" arrival="145.00" arrivalLane="450554042#0_0" arrivalPos="622.66" arrivalSpeed="14.02" duration="70.00" routeLength="763.53" waitingTime="6.00" waitingCount="1" stopTime="0.00" timeLoss="15.42" rerouteNo="0" devices="tripinfo_35" vType="DEFAULT_VEHTYPE" speedFactor="0.88" vaporized=""/>
    <tripinfo id="50" depart="106.00" departLane="-218680176#1_0" departPos="5.10" departSpeed="0.00" departDelay="0.12" arrival="149.00" arrivalLane="231177697#0_0" arrivalPos="74.44" arrivalSpeed="8.04" duration="43.00" routeLength="205.97" waitingTime="10.00" waitingCount="1" stopTime="0.00" timeLoss="20.14" rerouteNo="0" devices="tripinfo_50" vType="DEFAULT_VEHTYPE" speedFactor="0.66" vaporized=""/>
    <tripinfo id="23" depart="50.00" departLane="-218680176#1_0" departPos="5.10" departSpeed="0.00" departDelay="1.29" arrival="159.00" arrivalLane="210831345#1_1" arrivalPos="264.29" arrivalSpeed="12.63" duration="109.00" routeLength="699.94" waitingTime="33.00" waitingCount="1" stopTime="0.00" timeLoss="52.71" rerouteNo="0" devices="tripinfo_23" vType="DEFAULT_VEHTYPE" speedFactor="0.92" vaporized=""/>
    <tripinfo id="22" depart="47.00" departLane="-218680176#1_0" departPos="5.10" departSpeed="0.00" departDelay="0.41" arrival="160.00" arrivalLane="210831345#1_0" arrivalPos="264.29" arrivalSpeed="10.90" duration="113.00" routeLength="699.94" waitingTime="36.00" waitingCount="1" stopTime="0.00" timeLoss="47.15" rerouteNo="0" devices="tripinfo_22" vType="DEFAULT_VEHTYPE" speedFactor="0.79" vaporized=""/>
    <tripinfo id="36" depart="77.00" departLane="978867529_0" departPos="5.10" departSpeed="0.00" departDelay="0.76" arrival="161.00" arrivalLane="210831345#1_1" arrivalPos="264.29" arrivalSpeed="15.13" duration="84.00" routeLength="951.92" waitingTime="0.00" waitingCount="0" stopTime="0.00" timeLoss="26.04" rerouteNo="0" devices="tripinfo_36" vType="DEFAULT_VEHTYPE" speedFactor="1.14" vaporized=""/>
    <tripinfo id="46" depart="98.00" departLane="978867529_0" departPos="5.10" departSpeed="0.00" departDelay="0.59" arrival="169.00" arrivalLane="210831347#0_0" arrivalPos="149.88" arrivalSpeed="13.98" duration="71.00" routeLength="812.56" waitingTime="6.00" waitingCount="1" stopTime="0.00" timeLoss="17.91" rerouteNo="0" devices="tripinfo_46" vType="DEFAULT_VEHTYPE" speedFactor="1.05" vaporized=""/>
    <tripinfo id="47" depart="100.00" departLane="-218680176#1_0" departPos="5.10" departSpeed="0.00" departDelay="0.47" arrival="171.00" arrivalLane="210831347#0_0" arrivalPos="149.88" arrivalSpeed="14.69" duration="71.00" routeLength="560.58" waitingTime="18.00" waitingCount="1" stopTime="0.00" timeLoss="33.66" rerouteNo="0" devices="tripinfo_47" vType="DEFAULT_VEHTYPE" speedFactor="1.12" vaporized=""/>
    <tripinfo id="6" depart="13.00" departLane="-218680176#1_0" departPos="5.10" departSpeed="0.00" departDelay="0.29" arrival="180.00" arrivalLane="153964138#0_2" arrivalPos="337.99" arrivalSpeed="16.58" duration="167.00" routeLength="462.27" waitingTime="126.00" waitingCount="1" stopTime="0.00" timeLoss="136.70" rerouteNo="0" devices="tripinfo_6" vType="DEFAULT_VEHTYPE" speedFactor="1.00" vaporized=""/>
    <tripinfo id="61" depart="130.00" departLane="978867529_0" departPos="5.10" departSpeed="0.00" departDelay="0.82" arrival="188.00" arrivalLane="218680176#0_0" arrivalPos="98.94" arrivalSpeed="15.13" duration="58.00" routeLength="442.15" waitingTime="22.00" waitingCount="1" stopTime="0.00" timeLoss="32.62" rerouteNo="0" devices="tripinfo_61" vType="DEFAULT_VEHTYPE" speedFactor="1.15" vaporized=""/>
    <tripinfo id="28" depart="60.00" departLane="-226276377#1_0" departPos="5.10" departSpeed="0.00" departDelay="0.71" arrival="189.00" arrivalLane="231177697#0_0" arrivalPos="74.44" arrivalSpeed="16.48" duration="129.00" routeLength="1114.63" waitingTime="47.00" waitingCount="1" stopTime="0.00" timeLoss="64.30" rerouteNo="0" devices="tripinfo_28" vType="DEFAULT_VEHTYPE" speedFactor="1.21" vaporized=""/>
    <tripinfo id="11" depart="24.00" departLane="-661251539_0" departPos="5.10" departSpeed="0.00" departDelay="0.71" arrival="202.00" arrivalLane="153964138#0_0" arrivalPos="337.99" arrivalSpeed="15.51" duration="178.00" routeLength="1239.04" waitingTime="80.00" waitingCount="1" stopTime="0.00" timeLoss="92.47" rerouteNo="0" devices="tripinfo_11" vType="DEFAULT_VEHTYPE" speedFactor="1.00" vaporized=""/>
    <tripinfo id="42" depart="89.00" departLane="-661251539_0" departPos="5.10" departSpeed="0.00" departDelay="0.06" arrival="203.00" arrivalLane="153964138#0_1" arrivalPos="337.99" arrivalSpeed="17.36" duration="114.00" routeLength="1239.04" waitingTime="16.00" waitingCount="2" stopTime="0.00" timeLoss="36.72" rerouteNo="0" devices="tripinfo_42" vType="DEFAULT_VEHTYPE" speedFactor="1.11" vaporized=""/>
    <tripinfo id="19" depart="42.00" departLane="978867529_0" departPos="5.10" departSpeed="0.00" departDelay="1.76" arrival="205.00" arrivalLane="226276377#0_0" arrivalPos="135.52" arrivalSpeed="13.30" duration="163.00" routeLength="1369.55" waitingTime="53.00" waitingCount="2" stopTime="0.00" timeLoss="72.24" rerouteNo="0" devices="tripinfo_19" vType="DEFAULT_VEHTYPE" speedFactor="0.98" vaporized=""/>
    <tripinfo id="18" depart="39.00" departLane="978867529_0" departPos="5.10" departSpeed="0.00" departDelay="0.88" arrival="210.00" arrivalLane="226276377#0_0" arrivalPos="135.52" arrivalSpeed="13.00" duration="171.00" routeLength="1369.55" waitingTime="53.00" waitingCount="2" stopTime="0.00" timeLoss="76.06" rerouteNo="0" devices="tripinfo_18" vType="DEFAULT_VEHTYPE" speedFactor="0.95" vaporized=""/>
    <tripinfo id="45" depart="97.00" departLane="-218680176#1_0" departPos="5.10" departSpeed="0.00" departDelay="1.71" arrival="212.00" arrivalLane="226276377#0_0" arrivalPos="135.52" arrivalSpeed="12.76" duration="115.00" routeLength="1117.57" waitingTime="19.00" waitingCount="1" stopTime="0.00" timeLoss="39.06" rerouteNo="0" devices="tripinfo_45" vType="DEFAULT_VEHTYPE" speedFactor="1.01" vaporized=""/>
    <tripinfo id="68" depart="144.00" departLane="-218680176#1_0" departPos="5.10" departSpeed="0.00" departDelay="0.00" arrival="213.00" arrivalLane="231177697#0_0" arrivalPos="74.44" arrivalSpeed="14.70" duration="69.00" routeLength="205.97" waitingTime="47.00" waitingCount="1" stopTime="0.00" timeLoss="55.26" rerouteNo="0" devices="tripinfo_68" vType="DEFAULT_VEHTYPE" speedFactor="1.09" vaporized=""/>
    <tripinfo id="25" depart="53.00" departLane="-661251539_0" departPos="5.10" departSpeed="0.00" departDelay="0.06" arrival="219.00" arrivalLane="153964138#0_0" arrivalPos="337.99" arrivalSpeed="12.10" duration="166.00" routeLength="1239.04" waitingTime="37.00" waitingCount="2" stopTime="0.00" timeLoss="55.12" rerouteNo="0" devices="tripinfo_25" vType="DEFAULT_VEHTYPE" speedFactor="0.77" vaporized=""/>
    <tripinfo id="41" depart="88.00" departLane="65746828#0_0" departPos="5.10" departSpeed="0.00" departDelay="1.18" arrival="220.00" arrivalLane="450554042#0_0" arrivalPos="622.66" arrivalSpeed="16.50" duration="132.00" routeLength="1340.72" waitingTime="35.00" waitingCount="1" stopTime="0.00" timeLoss="49.40" rerouteNo="0" devices="tripinfo_41" vType="DEFAULT_VEHTYPE" speedFactor="1.02" vaporized=""/>
    <tripinfo id="12" depart="26.00" departLane="E8_0" departPos="5.10" departSpeed="0.00" departDelay="0.59" arrival="221.00" arrivalLane="210831347#0_1" arrivalPos="149.88" arrivalSpeed="11.81" duration="195.00" routeLength="1367.17" waitingTime="71.00" waitingCount="2" stopTime="0.00" timeLoss="88.61" rerouteNo="0" devices="tripinfo_12" vType="DEFAULT_VEHTYPE" speedFactor="0.90" vaporized=""/>
    <tripinfo id="79" depart="168.00" departLane="-231177697#2_0" departPos="5.10" departSpeed="0.00" departDelay="0.71" arrival="228.00" arrivalLane="153964138#0_0" arrivalPos="337.99" arrivalSpeed="15.56" duration="60.00" routeLength="417.38" waitingTime="23.00" waitingCount="1" stopTime="0.00" timeLoss="32.82" rerouteNo="0" devices="tripinfo_79" vType="DEFAULT_VEHTYPE" speedFactor="0.99" vaporized=""/>
    <tripinfo id="1" depart="3.00" departLane="-231177697#2_0" departPos="5.10" departSpeed="0.00" departDelay="0.88" arrival="230.00" arrivalLane="210831345#1_0" arrivalPos="264.29" arrivalSpeed="15.32" duration="227.00" routeLength="696.92" waitingTime="164.00" waitingCount="2" stopTime="0.00" timeLoss="182.20" rerouteNo="0" devices="tripinfo_1" vType="DEFAULT_VEHTYPE" speedFactor="1.14" vaporized=""/>
    <tripinfo id="62" depart="132.00" departLane="-218680176#1_0" departPos="5.10" departSpeed="0.00" departDelay="0.71" arrival="230.00" arrivalLane="210831345#1_1" arrivalPos="264.29" arrivalSpeed="11.80" duration="98.00" routeLength="699.94" waitingTime="28.00" waitingCount="1" stopTime="0.00" timeLoss="41.03" rerouteNo="0" devices="tripinfo_62" vType="DEFAULT_VEHTYPE" speedFactor="0.90" vaporized=""/>
    <tripinfo id="49" depart="105.00" departLane="E8_0" departPos="5.10" departSpeed="0.00" departDelay="1.24" arrival="233.00" arrivalLane="39907424_0" arrivalPos="316.44" arrivalSpeed="12.87" duration="128.00" routeLength="1303.68" waitingTime="18.00" waitingCount="1" stopTime="0.00" timeLoss="32.93" rerouteNo="0" devices="tripinfo_49" vType="DEFAULT_VEHTYPE" speedFactor="0.96" vaporized=""/>
    <tripinfo id="57" depart="121.00" departLane="E8_0" departPos="5.10" departSpeed="0.00" departDelay="0.29" arrival="235.00" arrivalLane="39907424_0" arrivalPos="316.44" arrivalSpeed="12.79" duration="114.00" routeLength="1303.68" waitingTime="5.00" waitingCount="1" stopTime="0.00" timeLoss="19.48" rerouteNo="0" devices="tripinfo_57" vType="DEFAULT_VEHTYPE" speedFactor="0.96" vaporized=""/>
    <tripinfo id="21" depart="45.00" departLane="-231177697#2_0" departPos="5.10" departSpeed="0.00" departDelay="0.53" arrival="236.00" arrivalLane="210831345#1_0" arrivalPos="264.29" arrivalSpeed="12.27" duration="191.00" routeLength="696.92" waitingTime="116.00" waitingCount="2" stopTime="0.00" timeLoss="133.00" rerouteNo="0" devices="tripinfo_21" vType="DEFAULT_VEHTYPE" speedFactor="0.89" vaporized=""/>
    <tripinfo id="34" depart="72.00" departLane="-231177697#2_0" departPos="5.10" departSpeed="0.00" departDelay="0.00" arrival="237.00" arrivalLane="210831345#1_1" arrivalPos="264.29" arrivalSpeed="12.56" duration="165.00" routeLength="696.92" waitingTime="87.00" waitingCount="2" stopTime="0.00" timeLoss="110.47" rerouteNo="0" devices="tripinfo_34" vType="DEFAULT_VEHTYPE" speedFactor="0.94" vaporized=""/>
    <tripinfo id="39" depart="83.00" departLane="-231177697#2_0" departPos="5.10" departSpeed="0.00" departDelay="0.41" arrival="238.00" arrivalLane="210831345#1_0" arrivalPos="264.29" arrivalSpeed="13.45" duration="155.00" routeLength="696.92" waitingTime="81.00" waitingCount="2" stopTime="0.00" timeLoss="105.64" rerouteNo="0" devices="tripinfo_39" vType="DEFAULT_VEHTYPE" speedFactor="1.04" vaporized=""/>
    <tripinfo id="55" depart="117.00" departLane="978867529_0" departPos="5.10" departSpeed="0.00" departDelay="0.53" arrival="240.00" arrivalLane="210831345#1_1" arrivalPos="264.29" arrivalSpeed="12.33" duration="123.00" routeLength="951.92" waitingTime="34.00" waitingCount="2" stopTime="0.00" timeLoss="54.49" rerouteNo="0" devices="tripinfo_55" vType="DEFAULT_VEHTYPE" speedFactor="0.95" vaporized=""/>
    <tripinfo id="86" depart="183.00" departLane="256961141#0_0" departPos="5.10" departSpeed="0.00" departDelay="0.88" arrival="253.00" arrivalLane="39907424_0" arrivalPos="316.44" arrivalSpeed="14.19" duration="70.00" routeLength="873.95" waitingTime="0.00" waitingCount="0" stopTime="0.00" timeLoss="10.28" rerouteNo="0" devices="tripinfo_86" vType="DEFAULT_VEHTYPE" speedFactor="1.02" vaporized=""/>
    <tripinfo id="88" depart="187.00" departLane="-218680176#1_0" departPos="5.10" departSpeed="0.00" departDelay="0.65" arrival="254.00" arrivalLane="210831347#0_0" arrivalPos="149.88" arrivalSpeed="11.31" duration="67.00" routeLength="560.58" waitingTime="5.00" waitingCount="1" stopTime="0.00" timeLoss="17.76" rerouteNo="0" devices="tripinfo_88" vType="DEFAULT_VEHTYPE" speedFactor="0.86" vaporized=""/>
    <tripinfo id="75" depart="159.00" departLane="E8_0" departPos="5.10" departSpeed="0.00" departDelay="0.18" arrival="266.00" arrivalLane="226276377#0_1" arrivalPos="135.52" arrivalSpeed="15.75" duration="107.00" routeLength="784.51" waitingTime="49.00" waitingCount="1" stopTime="0.00" timeLoss="59.57" rerouteNo="0" devices="tripinfo_75" vType="DEFAULT_VEHTYPE" speedFactor="1.21" vaporized=""/>
    <tripinfo id="85" depart="180.00" departLane="E8_0" departPos="5.10" departSpeed="0.00" departDelay="0.00" arrival="270.00" arrivalLane="226276377#0_1" arrivalPos="135.52" arrivalSpeed="13.41" duration="90.00" routeLength="784.51" waitingTime="23.00" waitingCount="1" stopTime="0.00" timeLoss="33.95" rerouteNo="0" devices="tripinfo_85" vType="DEFAULT_VEHTYPE" speedFactor="1.03" vaporized=""/>
    <tripinfo id="92" depart="195.00" departLane="-661251539_0" departPos="5.10" departSpeed="0.00" departDelay="0.18" arrival="270.00" arrivalLane="210831347#0_1" arrivalPos="149.88" arrivalSpeed="12.53" duration="75.00" routeLength="731.18" waitingTime="2.00" waitingCount="1" stopTime="0.00" timeLoss="18.46" rerouteNo="0" devices="tripinfo_92" vType="DEFAULT_VEHTYPE" speedFactor="0.96" vaporized=""/>
    <tripinfo id="71" depart="151.00" departLane="-231177697#2_0" departPos="5.10" departSpeed="0.00" departDelay="0.65" arrival="271.00" arrivalLane="39907424_0" arrivalPos="316.44" arrivalSpeed="14.26" duration="120.00" routeLength="961.15" waitingTime="38.00" waitingCount="2" stopTime="0.00" timeLoss="57.14" rerouteNo="0" devices="tripinfo_71" vType="DEFAULT_VEHTYPE" speedFactor="1.07" vaporized=""/>
    <tripinfo id="95" depart="202.00" departLane="-661251539_0" departPos="5.10" departSpeed="0.00" departDelay="0.82" arrival="271.00" arrivalLane="210831345#1_0" arrivalPos="264.29" arrivalSpeed="14.70" duration="69.00" routeLength="826.64" waitingTime="0.00" waitingCount="0" stopTime="0.00" timeLoss="14.16" rerouteNo="0" devices="tripinfo_95" vType="DEFAULT_VEHTYPE" speedFactor="1.11" vaporized=""/>
    <tripinfo id="54" depart="115.00" departLane="256961141#0_0" departPos="5.10" departSpeed="0.00" departDelay="0.65" arrival="272.00" arrivalLane="450554042#0_0" arrivalPos="622.66" arrivalSpeed="15.55" duration="157.00" routeLength="853.74" waitingTime="90.00" waitingCount="1" stopTime="0.00" timeLoss="102.94" rerouteNo="0" devices="tripinfo_54" vType="DEFAULT_VEHTYPE" speedFactor="1.01" vaporized=""/>
    <tripinfo id="9" depart="20.00" departLane="978867529_0" departPos="5.10" departSpeed="0.00" departDelay="0.94" arrival="274.00" arrivalLane="-256961141#1_1" arrivalPos="204.72" arrivalSpeed="13.32" duration="254.00" routeLength="1459.36" waitingTime="133.00" waitingCount="3" stopTime="0.00" timeLoss="156.64" rerouteNo="0" devices="tripinfo_9" vType="DEFAULT_VEHTYPE" speedFactor="0.99" vaporized=""/>
    <tripinfo id="13" depart="28.00" departLane="-218680176#1_0" departPos="5.10" departSpeed="0.00" departDelay="0.47" arrival="275.00" arrivalLane="-256961141#1_1" arrivalPos="204.72" arrivalSpeed="14.91" duration="247.00" routeLength="1207.38" waitingTime="144.00" waitingCount="3" stopTime="0.00" timeLoss="172.99" rerouteNo="0" devices="tripinfo_13" vType="DEFAULT_VEHTYPE" speedFactor="1.11" vaporized=""/>
    <tripinfo id="115" depart="244.00" departLane="-218680176#1_0" departPos="5.10" departSpeed="0.00" departDelay="0.47" arrival="276.00" arrivalLane="153964138#0_2" arrivalPos="337.99" arrivalSpeed="18.03" duration="32.00" routeLength="462.27" waitingTime="0.00" waitingCount="0" stopTime="0.00" timeLoss="5.36" rerouteNo="0" devices="tripinfo_115" vType="DEFAULT_VEHTYPE" speedFactor="1.14" vaporized=""/>
    <tripinfo id="44" depart="94.00" departLane="-218680176#1_0" departPos="5.10" departSpeed="0.00" departDelay="0.82" arrival="279.00" arrivalLane="-256961141#1_1" arrivalPos="204.72" arrivalSpeed="11.95" duration="185.00" routeLength="1207.38" waitingTime="72.00" waitingCount="2" stopTime="0.00" timeLoss="97.23" rerouteNo="0" devices="tripinfo_44" vType="DEFAULT_VEHTYPE" speedFactor="0.94" vaporized=""/>
    <tripinfo id="64" depart="136.00" departLane="978867529_0" departPos="5.10" departSpeed="0.00" departDelay="0.47" arrival="280.00" arrivalLane="39907424_0" arrivalPos="316.44" arrivalSpeed="11.23" duration="144.00" routeLength="1216.15" waitingTime="32.00" waitingCount="2" stopTime="0.00" timeLoss="51.20" rerouteNo="0" devices="tripinfo_64" vType="DEFAULT_VEHTYPE" speedFactor="0.89" vaporized=""/>
    <tripinfo id="33" depart="70.00" departLane="-231177697#2_0" departPos="5.10" departSpeed="0.00" departDelay="0.12" arrival="281.00" arrivalLane="-256961141#1_1" arrivalPos="204.72" arrivalSpeed="14.13" duration="211.00" routeLength="1204.36" waitingTime="115.00" waitingCount="2" stopTime="0.00" timeLoss="136.69" rerouteNo="0" devices="tripinfo_33" vType="DEFAULT_VEHTYPE" speedFactor="1.10" vaporized=""/>
    <tripinfo id="29" depart="63.00" departLane="-226276377#1_0" departPos="5.10" departSpeed="0.00" departDelay="1.59" arrival="296.00" arrivalLane="210831347#0_1" arrivalPos="149.88" arrivalSpeed="12.31" duration="233.00" routeLength="888.52" waitingTime="149.00" waitingCount="2" stopTime="0.00" timeLoss="165.82" rerouteNo="0" devices="tripinfo_29" vType="DEFAULT_VEHTYPE" speedFactor="0.91" vaporized=""/>
    <tripinfo id="53" depart="113.00" departLane="-226276377#1_0" departPos="5.10" departSpeed="0.00" departDelay="0.76" arrival="297.00" arrivalLane="210831347#0_1" arrivalPos="149.88" arrivalSpeed="13.87" duration="184.00" routeLength="888.52" waitingTime="102.00" waitingCount="2" stopTime="0.00" timeLoss="124.83" rerouteNo="0" devices="tripinfo_53" vType="DEFAULT_VEHTYPE" speedFactor="1.03" vaporized=""/>
    <tripinfo id="128" depart="272.00" departLane="-218680176#1_0" departPos="5.10" departSpeed="0.00" departDelay="0.94" arrival="311.00" arrivalLane="153964138#0_1" arrivalPos="337.99" arrivalSpeed="15.06" duration="39.00" routeLength="462.27" waitingTime="0.00" waitingCount="0" stopTime="0.00" timeLoss="5.59" rerouteNo="0" devices="tripinfo_128" vType="DEFAULT_VEHTYPE" speedFactor="0.91" vaporized=""/>
    <tripinfo id="90" depart="191.00" departLane="666135205#0_0" departPos="5.10" departSpeed="0.00" departDelay="0.41" arrival="315.00" arrivalLane="231177697#0_0" arrivalPos="74.44" arrivalSpeed="13.85" duration="124.00" routeLength="649.17" waitingTime="61.00" waitingCount="2" stopTime="0.00" timeLoss="76.12" rerouteNo="0" devices="tripinfo_90" vType="DEFAULT_VEHTYPE" speedFactor="1.02" vaporized=""/>
    <tripinfo id="114" depart="242.00" departLane="-226276377#1_0" departPos="5.10" departSpeed="0.00" departDelay="0.59" arrival="316.00" arrivalLane="450554042#0_0" arrivalPos="622.66" arrivalSpeed="16.25" duration="74.00" routeLength="763.53" waitingTime="14.00" waitingCount="1" stopTime="0.00" timeLoss="24.59" rerouteNo="0" devices="tripinfo_114" vType="DEFAULT_VEHTYPE" speedFactor="0.99" vaporized=""/>
    <tripinfo id="73" depart="155.00" departLane="256961141#0_0" departPos="5.10" departSpeed="0.00" departDelay="0.41" arrival="318.00" arrivalLane="231177697#0_0" arrivalPos="74.44" arrivalSpeed="12.90" duration="163.00" routeLength="1163.55" waitingTime="57.00" waitingCount="2" stopTime="0.00" timeLoss="78.05" rerouteNo="0" devices="tripinfo_73" vType="DEFAULT_VEHTYPE" speedFactor="0.96" vaporized=""/>
    <tripinfo id="69" depart="147.00" departLane="666135205#0_0" departPos="5.10" departSpeed="0.00" departDelay="0.88" arrival="325.00" arrivalLane="153964138#0_0" arrivalPos="337.99" arrivalSpeed="19.33" duration="178.00" routeLength="924.87" waitingTime="106.00" waitingCount="2" stopTime="0.00" timeLoss="125.71" rerouteNo="0" devices="tripinfo_69" vType="DEFAULT_VEHTYPE" speedFactor="1.21" vaporized=""/>
    <tripinfo id="121" depart="257.00" departLane="256961141#0_0" departPos="5.10" departSpeed="0.00" departDelay="0.76" arrival="325.00" arrivalLane="450554042#0_0" arrivalPos="622.66" arrivalSpeed="14.85" duration="68.00" routeLength="853.74" waitingTime="0.00" waitingCount="0" stopTime="0.00" timeLoss="7.58" rerouteNo="0" devices="tripinfo_121" vType="DEFAULT_VEHTYPE" speedFactor="0.91" vaporized=""/>
    <tripinfo id="72" depart="153.00" departLane="-661251539_0" departPos="5.10" departSpeed="0.00" departDelay="0.53" arrival="326.00" arrivalLane="153964138#0_0" arrivalPos="337.99" arrivalSpeed="18.48" duration="173.00" routeLength="1239.04" waitingTime="77.00" waitingCount="2" stopTime="0.00" timeLoss="97.91" rerouteNo="0" devices="tripinfo_72" vType="DEFAULT_VEHTYPE" speedFactor="1.14" vaporized=""/>
    <tripinfo id="56" depart="119.00" departLane="256961141#0_0" departPos="5.10" departSpeed="0.00" departDelay="0.41" arrival="329.00" arrivalLane="153964138#0_2" arrivalPos="337.99" arrivalSpeed="15.57" duration="210.00" routeLength="1439.25" waitingTime="84.00" waitingCount="3" stopTime="0.00" timeLoss="110.67" rerouteNo="0" devices="tripinfo_56" vType="DEFAULT_VEHTYPE" speedFactor="0.97" vaporized=""/>
    <tripinfo id="14" depart="30.00" departLane="978867529_0" departPos="5.10" departSpeed="0.00" departDelay="0.35" arrival="343.00" arrivalLane="226276377#0_0" arrivalPos="135.52" arrivalSpeed="12.51" duration="313.00" routeLength="1369.55" waitingTime="187.00" waitingCount="3" stopTime="0.00" timeLoss="213.97" rerouteNo="0" devices="tripinfo_14" vType="DEFAULT_VEHTYPE" speedFactor="0.91" vaporized=""/>
    <tripinfo id="78" depart="166.00" departLane="-661251539_0" departPos="5.10" departSpeed="0.00" departDelay="0.82" arrival="344.00" arrivalLane="226276377#0_0" arrivalPos="135.52" arrivalSpeed="13.34" duration="178.00" routeLength="783.10" waitingTime="109.00" waitingCount="2" stopTime="0.00" timeLoss="134.67" rerouteNo="0" devices="tripinfo_78" vType="DEFAULT_VEHTYPE" speedFactor="1.26" vaporized=""/>
    <tripinfo id="58" depart="123.00" departLane="-231177697#2_0" departPos="5.10" departSpeed="0.00" departDelay="0.18" arrival="346.00" arrivalLane="226276377#0_0" arrivalPos="135.52" arrivalSpeed="14.24" duration="223.00" routeLength="1114.55" waitingTime="123.00" waitingCount="3" stopTime="0.00" timeLoss="153.50" rerouteNo="0" devices="tripinfo_58" vType="DEFAULT_VEHTYPE" speedFactor="1.08" vaporized=""/>
    <tripinfo id="91" depart="193.00" departLane="E8_0" departPos="5.10" departSpeed="0.00" departDelay="0.29" arrival="346.00" arrivalLane="-256961141#1_0" arrivalPos="204.72" arrivalSpeed="13.81" duration="153.00" routeLength="832.89" waitingTime="83.00" waitingCount="1" stopTime="0.00" timeLoss="94.33" rerouteNo="0" devices="tripinfo_91" vType="DEFAULT_VEHTYPE" speedFactor="1.04" vaporized=""/>
    <tripinfo id="52" depart="111.00" departLane="-231177697#2_0" departPos="5.10" departSpeed="0.00" departDelay="0.88" arrival="350.00" arrivalLane="226276377#0_0" arrivalPos="135.52" arrivalSpeed="12.72" duration="239.00" routeLength="1114.55" waitingTime="126.00" waitingCount="3" stopTime="0.00" timeLoss="162.48" rerouteNo="0" devices="tripinfo_52" vType="DEFAULT_VEHTYPE" speedFactor="0.99" vaporized=""/>
    <tripinfo id="80" depart="170.00" departLane="-218680176#1_0" departPos="5.10" departSpeed="0.00" departDelay="0.59" arrival="351.00" arrivalLane="226276377#0_0" arrivalPos="135.52" arrivalSpeed="14.16" duration="181.00" routeLength="1117.57" waitingTime="75.00" waitingCount="3" stopTime="0.00" timeLoss="112.00" rerouteNo="0" devices="tripinfo_80" vType="DEFAULT_VEHTYPE" speedFactor="1.10" vaporized=""/>