<?xml version="1.0" encoding="UTF-8"?>

<!-- generated on 2024-09-03 02:38:19 by Eclipse SUMO sumo Version 1.20.0
<configuration xmlns:xsi="http://www.w3.org/2001/XMLSchema-instance" xsi:noNamespaceSchemaLocation="http://sumo.dlr.de/xsd/sumoConfiguration.xsd">

    <input>
        <net-file value="c:\self\School\Master\Disertation\code\RESCO\resco_benchmark\environments/unirii/osm.net.xml.gz"/>
        <route-files value="c:\self\School\Master\Disertation\code\RESCO\resco_benchmark\environments/unirii/osm.passenger.trips.xml"/>
        <additional-files value="c:\self\School\Master\Disertation\code\RESCO\resco_benchmark\environments/unirii/osm.poly.xml.gz"/>
    </input>

    <output>
        <tripinfo-output value="C:\self\School\Master\Disertation\code\RESCO\results\IA2C-tr0-unirii-0-drq_norm-wait_norm\tripinfo_17.xml"/>
        <tripinfo-output.write-unfinished value="true"/>
    </output>

    <processing>
        <ignore-route-errors value="true"/>
        <time-to-teleport value="-1"/>
    </processing>

    <routing>
        <device.rerouting.adaptation-steps value="18"/>
        <device.rerouting.adaptation-interval value="10"/>
    </routing>

    <report>
        <verbose value="true"/>
        <no-warnings value="True"/>
        <duration-log.statistics value="true"/>
        <no-step-log value="True"/>
    </report>

    <traci_server>
        <remote-port value="52000"/>
    </traci_server>

    <random_number>
        <random value="true"/>
    </random_number>

    <gui_only>
        <gui-settings-file value="c:\self\School\Master\Disertation\code\RESCO\resco_benchmark\environments/unirii/osm.view.xml"/>
    </gui_only>

</configuration>
-->

<tripinfos xmlns:xsi="http://www.w3.org/2001/XMLSchema-instance" xsi:noNamespaceSchemaLocation="http://sumo.dlr.de/xsd/tripinfo_file.xsd">
    <tripinfo id="0" depart="0.00" departLane="65746828#0_0" departPos="5.10" departSpeed="0.00" departDelay="0.00" arrival="80.00" arrivalLane="-256961141#1_1" arrivalPos="204.72" arrivalSpeed="12.94" duration="80.00" routeLength="931.50" waitingTime="5.00" waitingCount="1" stopTime="0.00" timeLoss="17.11" rerouteNo="0" devices="tripinfo_0" vType="DEFAULT_VEHTYPE" speedFactor="0.99" vaporized=""/>
    <tripinfo id="6" depart="13.00" departLane="-218680176#1_0" departPos="5.10" departSpeed="0.00" departDelay="0.29" arrival="80.00" arrivalLane="153964138#0_2" arrivalPos="337.99" arrivalSpeed="15.74" duration="67.00" routeLength="462.27" waitingTime="26.00" waitingCount="1" stopTime="0.00" timeLoss="36.64" rerouteNo="0" devices="tripinfo_6" vType="DEFAULT_VEHTYPE" speedFactor="0.98" vaporized=""/>
    <tripinfo id="2" depart="5.00" departLane="666135205#0_0" departPos="5.10" departSpeed="0.00" departDelay="0.76" arrival="86.00" arrivalLane="231177697#0_0" arrivalPos="74.44" arrivalSpeed="16.34" duration="81.00" routeLength="649.17" waitingTime="29.00" waitingCount="1" stopTime="0.00" timeLoss="43.32" rerouteNo="0" devices="tripinfo_2" vType="DEFAULT_VEHTYPE" speedFactor="1.28" vaporized=""/>
    <tripinfo id="4" depart="9.00" departLane="-661251539_0" departPos="5.10" departSpeed="0.00" departDelay="0.53" arrival="90.00" arrivalLane="-256961141#1_1" arrivalPos="204.72" arrivalSpeed="11.47" duration="81.00" routeLength="872.91" waitingTime="0.00" waitingCount="0" stopTime="0.00" timeLoss="8.56" rerouteNo="0" devices="tripinfo_4" vType="DEFAULT_VEHTYPE" speedFactor="0.83" vaporized=""/>
    <tripinfo id="10" depart="23.00" departLane="978867529_0" departPos="5.10" departSpeed="0.00" departDelay="1.82" arrival="113.00" arrivalLane="231177697#0_1" arrivalPos="74.44" arrivalSpeed="13.40" duration="90.00" routeLength="437.06" waitingTime="52.00" waitingCount="1" stopTime="0.00" timeLoss="61.83" rerouteNo="0" devices="tripinfo_10" vType="DEFAULT_VEHTYPE" speedFactor="1.01" vaporized=""/>
    <tripinfo id="15" depart="33.00" departLane="978867529_0" departPos="5.10" departSpeed="0.00" departDelay="1.24" arrival="117.00" arrivalLane="231177697#0_1" arrivalPos="74.44" arrivalSpeed="10.87" duration="84.00" routeLength="437.06" waitingTime="40.00" waitingCount="1" stopTime="0.00" timeLoss="49.07" rerouteNo="0" devices="tripinfo_15" vType="DEFAULT_VEHTYPE" speedFactor="0.82" vaporized=""/>
    <tripinfo id="32" depart="68.00" departLane="978867529_0" departPos="5.10" departSpeed="0.00" departDelay="0.24" arrival="119.00" arrivalLane="231177697#0_1" arrivalPos="74.44" arrivalSpeed="13.26" duration="51.00" routeLength="437.06" waitingTime="9.00" waitingCount="1" stopTime="0.00" timeLoss="21.29" rerouteNo="0" devices="tripinfo_32" vType="DEFAULT_VEHTYPE" speedFactor="0.98" vaporized=""/>
    <tripinfo id="30" depart="64.00" departLane="E8_0" departPos="5.10" departSpeed="0.00" departDelay="0.47" arrival="125.00" arrivalLane="226276377#0_1" arrivalPos="135.52" arrivalSpeed="14.43" duration="61.00" routeLength="784.51" waitingTime="0.00" waitingCount="0" stopTime="0.00" timeLoss="6.39" rerouteNo="0" devices="tripinfo_30" vType="DEFAULT_VEHTYPE" speedFactor="1.06" vaporized=""/>
    <tripinfo id="13" depart="28.00" departLane="-218680176#1_0" departPos="5.10" departSpeed="0.00" departDelay="0.47" arrival="129.00" arrivalLane="-256961141#1_1" arrivalPos="204.72" arrivalSpeed="14.74" duration="101.00" routeLength="1207.38" waitingTime="9.00" waitingCount="2" stopTime="0.00" timeLoss="29.03" rerouteNo="0" devices="tripinfo_13" vType="DEFAULT_VEHTYPE" speedFactor="1.14" vaporized=""/>
    <tripinfo id="17" depart="36.00" departLane="-661251539_0" departPos="5.10" departSpeed="0.00" departDelay="0.00" arrival="129.00" arrivalLane="218680176#0_1" arrivalPos="98.94" arrivalSpeed="10.92" duration="93.00" routeLength="1001.21" waitingTime="0.00" waitingCount="0" stopTime="0.00" timeLoss="9.32" rerouteNo="0" devices="tripinfo_17" vType="DEFAULT_VEHTYPE" speedFactor="0.87" vaporized=""/>
    <tripinfo id="27" depart="58.00" departLane="65746828#0_0" departPos="5.10" departSpeed="0.00" departDelay="0.82" arrival="140.00" arrivalLane="226276377#0_0" arrivalPos="135.52" arrivalSpeed="15.65" duration="82.00" routeLength="841.69" waitingTime="21.00" waitingCount="1" stopTime="0.00" timeLoss="34.86" rerouteNo="0" devices="tripinfo_27" vType="DEFAULT_VEHTYPE" speedFactor="1.18" vaporized=""/>
    <tripinfo id="3" depart="7.00" departLane="E8_0" departPos="5.10" departSpeed="0.00" departDelay="0.65" arrival="147.00" arrivalLane="-256961141#1_0" arrivalPos="204.72" arrivalSpeed="13.37" duration="140.00" routeLength="832.89" waitingTime="66.00" waitingCount="1" stopTime="0.00" timeLoss="78.14" rerouteNo="0" devices="tripinfo_3" vType="DEFAULT_VEHTYPE" speedFactor="0.98" vaporized=""/>
    <tripinfo id="14" depart="30.00" departLane="978867529_0" departPos="5.10" departSpeed="0.00" departDelay="0.35" arrival="147.00" arrivalLane="226276377#0_0" arrivalPos="135.52" arrivalSpeed="15.07" duration="117.00" routeLength="1369.55" waitingTime="21.00" waitingCount="1" stopTime="0.00" timeLoss="36.67" rerouteNo="0" devices="tripinfo_14" vType="DEFAULT_VEHTYPE" speedFactor="1.11" vaporized=""/>
    <tripinfo id="35" depart="75.00" departLane="-226276377#1_0" departPos="5.10" departSpeed="0.00" departDelay="0.88" arrival="149.00" arrivalLane="450554042#0_0" arrivalPos="622.66" arrivalSpeed="12.72" duration="74.00" routeLength="763.53" waitingTime="5.00" waitingCount="1" stopTime="0.00" timeLoss="15.71" rerouteNo="0" devices="tripinfo_35" vType="DEFAULT_VEHTYPE" speedFactor="0.83" vaporized=""/>
    <tripinfo id="40" depart="85.00" departLane="65746828#0_0" departPos="5.10" departSpeed="0.00" departDelay="0.29" arrival="156.00" arrivalLane="210831345#1_0" arrivalPos="264.29" arrivalSpeed="12.01" duration="71.00" routeLength="446.75" waitingTime="25.00" waitingCount="1" stopTime="0.00" timeLoss="34.64" rerouteNo="0" devices="tripinfo_40" vType="DEFAULT_VEHTYPE" speedFactor="0.91" vaporized=""/>
    <tripinfo id="11" depart="24.00" departLane="-661251539_0" departPos="5.10" departSpeed="0.00" departDelay="0.71" arrival="157.00" arrivalLane="153964138#0_0" arrivalPos="337.99" arrivalSpeed="13.79" duration="133.00" routeLength="1239.04" waitingTime="18.00" waitingCount="1" stopTime="0.00" timeLoss="32.21" rerouteNo="0" devices="tripinfo_11" vType="DEFAULT_VEHTYPE" speedFactor="0.85" vaporized=""/>
    <tripinfo id="18" depart="39.00" departLane="978867529_0" departPos="5.10" departSpeed="0.00" departDelay="0.88" arrival="159.00" arrivalLane="226276377#0_0" arrivalPos="135.52" arrivalSpeed="13.41" duration="120.00" routeLength="1369.55" waitingTime="11.00" waitingCount="1" stopTime="0.00" timeLoss="27.78" rerouteNo="0" devices="tripinfo_18" vType="DEFAULT_VEHTYPE" speedFactor="0.97" vaporized=""/>
    <tripinfo id="46" depart="98.00" departLane="978867529_0" departPos="5.10" departSpeed="0.00" departDelay="0.59" arrival="173.00" arrivalLane="210831347#0_0" arrivalPos="149.88" arrivalSpeed="12.83" duration="75.00" routeLength="812.56" waitingTime="2.00" waitingCount="1" stopTime="0.00" timeLoss="15.16" rerouteNo="0" devices="tripinfo_46" vType="DEFAULT_VEHTYPE" speedFactor="0.95" vaporized=""/>
    <tripinfo id="50" depart="106.00" departLane="-218680176#1_0" departPos="5.10" departSpeed="0.00" departDelay="0.12" arrival="173.00" arrivalLane="231177697#0_0" arrivalPos="74.44" arrivalSpeed="13.70" duration="67.00" routeLength="205.97" waitingTime="33.00" waitingCount="2" stopTime="0.00" timeLoss="51.94" rerouteNo="0" devices="tripinfo_50" vType="DEFAULT_VEHTYPE" speedFactor="1.03" vaporized=""/>
    <tripinfo id="25" depart="53.00" departLane="-661251539_0" departPos="5.10" departSpeed="0.00" departDelay="0.06" arrival="177.00" arrivalLane="153964138#0_0" arrivalPos="337.99" arrivalSpeed="13.49" duration="124.00" routeLength="1239.04" waitingTime="10.00" waitingCount="1" stopTime="0.00" timeLoss="21.88" rerouteNo="0" devices="tripinfo_25" vType="DEFAULT_VEHTYPE" speedFactor="0.84" vaporized=""/>
    <tripinfo id="26" depart="56.00" departLane="-231177697#2_0" departPos="5.10" departSpeed="0.00" departDelay="0.94" arrival="177.00" arrivalLane="450554042#0_0" arrivalPos="622.66" arrivalSpeed="14.93" duration="121.00" routeLength="1613.58" waitingTime="0.00" waitingCount="0" stopTime="0.00" timeLoss="8.58" rerouteNo="0" devices="tripinfo_26" vType="DEFAULT_VEHTYPE" speedFactor="0.92" vaporized=""/>
    <tripinfo id="68" depart="144.00" departLane="-218680176#1_0" departPos="5.10" departSpeed="0.00" departDelay="0.00" arrival="179.00" arrivalLane="231177697#0_0" arrivalPos="74.44" arrivalSpeed="14.44" duration="35.00" routeLength="205.97" waitingTime="6.00" waitingCount="1" stopTime="0.00" timeLoss="21.49" rerouteNo="0" devices="tripinfo_68" vType="DEFAULT_VEHTYPE" speedFactor="1.10" vaporized=""/>
    <tripinfo id="47" depart="100.00" departLane="-218680176#1_0" departPos="5.10" departSpeed="0.00" departDelay="0.47" arrival="200.00" arrivalLane="210831347#0_0" arrivalPos="149.88" arrivalSpeed="13.46" duration="100.00" routeLength="560.58" waitingTime="38.00" waitingCount="2" stopTime="0.00" timeLoss="58.07" rerouteNo="0" devices="tripinfo_47" vType="DEFAULT_VEHTYPE" speedFactor="1.00" vaporized=""/>
    <tripinfo id="79" depart="168.00" departLane="-231177697#2_0" departPos="5.10" departSpeed="0.00" departDelay="0.71" arrival="200.00" arrivalLane="153964138#0_0" arrivalPos="337.99" arrivalSpeed="16.60" duration="32.00" routeLength="417.38" waitingTime="0.00" waitingCount="0" stopTime="0.00" timeLoss="6.15" rerouteNo="0" devices="tripinfo_79" vType="DEFAULT_VEHTYPE" speedFactor="1.05" vaporized=""/>
    <tripinfo id="12" depart="26.00" departLane="E8_0" departPos="5.10" departSpeed="0.00" departDelay="0.59" arrival="218.00" arrivalLane="210831347#0_1" arrivalPos="149.88" arrivalSpeed="14.74" duration="192.00" routeLength="1367.17" waitingTime="85.00" waitingCount="2" stopTime="0.00" timeLoss="105.83" rerouteNo="0" devices="tripinfo_12" vType="DEFAULT_VEHTYPE" speedFactor="1.11" vaporized=""/>
    <tripinfo id="16" depart="34.00" departLane="256961141#0_0" departPos="5.10" departSpeed="0.00" departDelay="0.12" arrival="220.00" arrivalLane="450554042#0_1" arrivalPos="622.66" arrivalSpeed="17.67" duration="186.00" routeLength="853.74" waitingTime="122.00" waitingCount="1" stopTime="0.00" timeLoss="134.91" rerouteNo="0" devices="tripinfo_16" vType="DEFAULT_VEHTYPE" speedFactor="1.07" vaporized=""/>
    <tripinfo id="54" depart="115.00" departLane="256961141#0_0" departPos="5.10" departSpeed="0.00" departDelay="0.65" arrival="227.00" arrivalLane="450554042#0_0" arrivalPos="622.66" arrivalSpeed="15.01" duration="112.00" routeLength="853.74" waitingTime="42.00" waitingCount="1" stopTime="0.00" timeLoss="53.79" rerouteNo="0" devices="tripinfo_54" vType="DEFAULT_VEHTYPE" speedFactor="0.95" vaporized=""/>
    <tripinfo id="1" depart="3.00" departLane="-231177697#2_0" departPos="5.10" departSpeed="0.00" departDelay="0.88" arrival="231.00" arrivalLane="210831345#1_1" arrivalPos="264.29" arrivalSpeed="11.35" duration="228.00" routeLength="696.92" waitingTime="153.00" waitingCount="2" stopTime="0.00" timeLoss="169.92" rerouteNo="0" devices="tripinfo_1" vType="DEFAULT_VEHTYPE" speedFactor="0.87" vaporized=""/>
    <tripinfo id="21" depart="45.00" departLane="-231177697#2_0" departPos="5.10" departSpeed="0.00" departDelay="0.53" arrival="231.00" arrivalLane="210831345#1_0" arrivalPos="264.29" arrivalSpeed="13.87" duration="186.00" routeLength="696.92" waitingTime="115.00" waitingCount="1" stopTime="0.00" timeLoss="138.62" rerouteNo="0" devices="tripinfo_21" vType="DEFAULT_VEHTYPE" speedFactor="1.08" vaporized=""/>
    <tripinfo id="22" depart="47.00" departLane="-218680176#1_0" departPos="5.10" departSpeed="0.00" departDelay="0.41" arrival="234.00" arrivalLane="210831345#1_1" arrivalPos="264.29" arrivalSpeed="13.54" duration="187.00" routeLength="699.94" waitingTime="115.00" waitingCount="2" stopTime="0.00" timeLoss="133.60" rerouteNo="0" devices="tripinfo_22" vType="DEFAULT_VEHTYPE" speedFactor="0.98" vaporized=""/>
    <tripinfo id="36" depart="77.00" departLane="978867529_0" departPos="5.10" departSpeed="0.00" departDelay="0.76" arrival="235.00" arrivalLane="210831345#1_1" arrivalPos="264.29" arrivalSpeed="13.32" duration="158.00" routeLength="951.92" waitingTime="73.00" waitingCount="2" stopTime="0.00" timeLoss="93.66" rerouteNo="0" devices="tripinfo_36" vType="DEFAULT_VEHTYPE" speedFactor="1.01" vaporized=""/>
    <tripinfo id="55" depart="117.00" departLane="978867529_0" departPos="5.10" departSpeed="0.00" departDelay="0.53" arrival="237.00" arrivalLane="210831345#1_0" arrivalPos="264.29" arrivalSpeed="14.57" duration="120.00" routeLength="951.92" waitingTime="42.00" waitingCount="1" stopTime="0.00" timeLoss="58.73" rerouteNo="0" devices="tripinfo_55" vType="DEFAULT_VEHTYPE" speedFactor="1.07" vaporized=""/>
    <tripinfo id="23" depart="50.00" departLane="-218680176#1_0" departPos="5.10" departSpeed="0.00" departDelay="1.29" arrival="238.00" arrivalLane="210831345#1_1" arrivalPos="264.29" arrivalSpeed="15.33" duration="188.00" routeLength="699.94" waitingTime="119.00" waitingCount="3" stopTime="0.00" timeLoss="143.37" rerouteNo="0" devices="tripinfo_23" vType="DEFAULT_VEHTYPE" speedFactor="1.16" vaporized=""/>
    <tripinfo id="75" depart="159.00" departLane="E8_0" departPos="5.10" departSpeed="0.00" departDelay="0.18" arrival="242.00" arrivalLane="226276377#0_1" arrivalPos="135.52" arrivalSpeed="14.93" duration="83.00" routeLength="784.51" waitingTime="21.00" waitingCount="1" stopTime="0.00" timeLoss="31.35" rerouteNo="0" devices="tripinfo_75" vType="DEFAULT_VEHTYPE" speedFactor="1.11" vaporized=""/>
    <tripinfo id="29" depart="63.00" departLane="-226276377#1_0" departPos="5.10" departSpeed="0.00" departDelay="1.59" arrival="245.00" arrivalLane="210831347#0_1" arrivalPos="149.88" arrivalSpeed="12.15" duration="182.00" routeLength="888.52" waitingTime="101.00" waitingCount="1" stopTime="0.00" timeLoss="117.33" rerouteNo="0" devices="tripinfo_29" vType="DEFAULT_VEHTYPE" speedFactor="0.95" vaporized=""/>
    <tripinfo id="62" depart="132.00" departLane="-218680176#1_0" departPos="5.10" departSpeed="0.00" departDelay="0.71" arrival="245.00" arrivalLane="210831345#1_0" arrivalPos="264.29" arrivalSpeed="11.26" duration="113.00" routeLength="699.94" waitingTime="30.00" waitingCount="2" stopTime="0.00" timeLoss="51.04" rerouteNo="0" devices="tripinfo_62" vType="DEFAULT_VEHTYPE" speedFactor="0.84" vaporized=""/>
    <tripinfo id="53" depart="113.00" departLane="-226276377#1_0" departPos="5.10" departSpeed="0.00" departDelay="0.76" arrival="246.00" arrivalLane="210831347#0_1" arrivalPos="149.88" arrivalSpeed="13.35" duration="133.00" routeLength="888.52" waitingTime="53.00" waitingCount="1" stopTime="0.00" timeLoss="74.94" rerouteNo="0" devices="tripinfo_53" vType="DEFAULT_VEHTYPE" speedFactor="1.05" vaporized=""/>
    <tripinfo id="9" depart="20.00" departLane="978867529_0" departPos="5.10" departSpeed="0.00" departDelay="0.94" arrival="249.00" arrivalLane="-256961141#1_1" arrivalPos="204.72" arrivalSpeed="12.39" duration="229.00" routeLength="1459.36" waitingTime="109.00" waitingCount="2" stopTime="0.00" timeLoss="129.40" rerouteNo="0" devices="tripinfo_9" vType="DEFAULT_VEHTYPE" speedFactor="0.97" vaporized=""/>
    <tripinfo id="44" depart="94.00" departLane="-218680176#1_0" departPos="5.10" departSpeed="0.00" departDelay="0.82" arrival="250.00" arrivalLane="-256961141#1_1" arrivalPos="204.72" arrivalSpeed="14.22" duration="156.00" routeLength="1207.38" waitingTime="57.00" waitingCount="3" stopTime="0.00" timeLoss="80.85" rerouteNo="0" devices="tripinfo_44" vType="DEFAULT_VEHTYPE" speedFactor="1.08" vaporized=""/>
    <tripinfo id="85" depart="180.00" departLane="E8_0" departPos="5.10" departSpeed="0.00" departDelay="0.00" arrival="250.00" arrivalLane="226276377#0_1" arrivalPos="135.52" arrivalSpeed="12.07" duration="70.00" routeLength="784.51" waitingTime="0.00" waitingCount="0" stopTime="0.00" timeLoss="6.06" rerouteNo="0" devices="tripinfo_85" vType="DEFAULT_VEHTYPE" speedFactor="0.90" vaporized=""/>
    <tripinfo id="92" depart="195.00" departLane="-661251539_0" departPos="5.10" departSpeed="0.00" departDelay="0.18" arrival="256.00" arrivalLane="210831347#0_1" arrivalPos="149.88" arrivalSpeed="14.76" duration="61.00" routeLength="731.18" waitingTime="0.00" waitingCount="0" stopTime="0.00" timeLoss="11.33" rerouteNo="0" devices="tripinfo_92" vType="DEFAULT_VEHTYPE" speedFactor="1.09" vaporized=""/>
    <tripinfo id="51" depart="108.00" departLane="666135205#0_0" departPos="5.10" departSpeed="0.00" departDelay="0.00" arrival="265.00" arrivalLane="218680176#0_1" arrivalPos="98.94" arrivalSpeed="13.50" duration="157.00" routeLength="693.09" waitingTime="93.00" waitingCount="1" stopTime="0.00" timeLoss="104.94" rerouteNo="0" devices="tripinfo_51" vType="DEFAULT_VEHTYPE" speedFactor="0.98" vaporized=""/>
    <tripinfo id="60" depart="128.00" departLane="666135205#0_0" departPos="5.10" departSpeed="0.00" departDelay="0.94" arrival="267.00" arrivalLane="218680176#0_1" arrivalPos="98.94" arrivalSpeed="15.65" duration="139.00" routeLength="693.09" waitingTime="82.00" waitingCount="1" stopTime="0.00" timeLoss="95.27" rerouteNo="0" devices="tripinfo_60" vType="DEFAULT_VEHTYPE" speedFactor="1.18" vaporized=""/>
    <tripinfo id="38" depart="81.00" departLane="E8_0" departPos="5.10" departSpeed="0.00" departDelay="0.53" arrival="269.00" arrivalLane="218680176#0_1" arrivalPos="98.94" arrivalSpeed="13.76" duration="188.00" routeLength="1637.20" waitingTime="61.00" waitingCount="1" stopTime="0.00" timeLoss="81.38" rerouteNo="0" devices="tripinfo_38" vType="DEFAULT_VEHTYPE" speedFactor="1.08" vaporized=""/>
    <tripinfo id="86" depart="183.00" departLane="256961141#0_0" departPos="5.10" departSpeed="0.00" departDelay="0.88" arrival="301.00" arrivalLane="39907424_0" arrivalPos="316.44" arrivalSpeed="12.47" duration="118.00" routeLength="873.95" waitingTime="43.00" waitingCount="1" stopTime="0.00" timeLoss="55.85" rerouteNo="0" devices="tripinfo_86" vType="DEFAULT_VEHTYPE" speedFactor="0.98" vaporized=""/>
    <tripinfo id="114" depart="242.00" departLane="-226276377#1_0" departPos="5.10" departSpeed="0.00" departDelay="0.59" arrival="301.00" arrivalLane="450554042#0_0" arrivalPos="622.66" arrivalSpeed="15.42" duration="59.00" routeLength="763.53" waitingTime="0.00" waitingCount="0" stopTime="0.00" timeLoss="7.54" rerouteNo="0" devices="tripinfo_114" vType="DEFAULT_VEHTYPE" speedFactor="0.94" vaporized=""/>
    <tripinfo id="7" depart="15.00" departLane="65746828#0_0" departPos="5.10" departSpeed="0.00" departDelay="0.18" arrival="312.00" arrivalLane="218680176#0_1" arrivalPos="98.94" arrivalSpeed="16.17" duration="297.00" routeLength="602.71" waitingTime="246.00" waitingCount="1" stopTime="0.00" timeLoss="259.11" rerouteNo="0" devices="tripinfo_7" vType="DEFAULT_VEHTYPE" speedFactor="1.18" vaporized=""/>
    <tripinfo id="132" depart="280.00" departLane="978867529_0" departPos="5.10" departSpeed="0.00" departDelay="0.47" arrival="316.00" arrivalLane="231177697#0_1" arrivalPos="74.44" arrivalSpeed="12.77" duration="36.00" routeLength="437.06" waitingTime="0.00" waitingCount="0" stopTime="0.00" timeLoss="5.07" rerouteNo="0" devices="tripinfo_132" vType="DEFAULT_VEHTYPE" speedFactor="0.94" vaporized=""/>
    <tripinfo id="106" depart="225.00" departLane="256961141#0_0" departPos="5.10" departSpeed="0.00" departDelay="0.53" arrival="318.00" arrivalLane="210831347#0_1" arrivalPos="149.88" arrivalSpeed="15.02" duration="93.00" routeLength="937.44" waitingTime="16.00" waitingCount="2" stopTime="0.00" timeLoss="34.34" rerouteNo="0" devices="tripinfo_106" vType="DEFAULT_VEHTYPE" speedFactor="1.11" vaporized=""/>
    <tripinfo id="113" depart="240.00" departLane="256961141#0_0" departPos="5.10" departSpeed="0.00" departDelay="0.71" arrival="323.00" arrivalLane="39907424_0" arrivalPos="316.44" arrivalSpeed="10.69" duration="83.00" routeLength="873.95" waitingTime="0.00" waitingCount="0" stopTime="0.00" timeLoss="9.50" rerouteNo="0" devices="tripinfo_113" vType="DEFAULT_VEHTYPE" speedFactor="0.84" vaporized=""/>
    <tripinfo id="145" depart="308.00" departLane="-218680176#1_0" departPos="5.10" departSpeed="0.00" departDelay="0.94" arrival="334.00" arrivalLane="231177697#0_0" arrivalPos="74.44" arrivalSpeed="12.57" duration="26.00" routeLength="205.97" waitingTime="1.00" waitingCount="1" stopTime="0.00" timeLoss="10.50" rerouteNo="0" devices="tripinfo_145" vType="DEFAULT_VEHTYPE" speedFactor="0.96" vaporized=""/>
    <tripinfo id="19" depart="42.00" departLane="978867529_0" departPos="5.10" departSpeed="0.00" departDelay="1.76" arrival="343.00" arrivalLane="226276377#0_0" arrivalPos="135.52" arrivalSpeed="10.57" duration="301.00" routeLength="1369.55" waitingTime="178.00" waitingCount="2" stopTime="0.00" timeLoss="196.30" rerouteNo="0" devices="tripinfo_19" vType="DEFAULT_VEHTYPE" speedFactor="0.85" vaporized=""/>
    <tripinfo id="45" depart="97.00" departLane="-218680176#1_0" departPos="5.10" departSpeed="0.00" departDelay="1.71" arrival="345.00" arrivalLane="226276377#0_0" arrivalPos="135.52" arrivalSpeed="12.97" duration="248.00" routeLength="1117.57" waitingTime="142.00" waitingCount="3" stopTime="0.00" timeLoss="167.88" rerouteNo="0" devices="tripinfo_45" vType="DEFAULT_VEHTYPE" speedFactor="0.95" vaporized=""/>
    <tripinfo id="78" depart="166.00" departLane="-661251539_0" departPos="5.10" departSpeed="0.00" departDelay="0.82" arrival="346.00" arrivalLane="226276377#0_0" arrivalPos="135.52" arrivalSpeed="14.90" duration="180.00" routeLength="783.10" waitingTime="111.00" waitingCount="2" stopTime="0.00" timeLoss="132.93" rerouteNo="0" devices="tripinfo_78" vType="DEFAULT_VEHTYPE" speedFactor="1.16" vaporized=""/>
    <tripinfo id="121" depart="257.00" departLane="256961141#0_0" departPos="5.10" departSpeed="0.00" departDelay="0.76" arrival="347.00" arrivalLane="450554042#0_0" arrivalPos="622.66" arrivalSpeed="15.17" duration="90.00" routeLength="853.74" waitingTime="25.00" waitingCount="1" stopTime="0.00" timeLoss="34.70" rerouteNo="0" devices="tripinfo_121" vType="DEFAULT_VEHTYPE" speedFactor="0.99" vaporized=""/>
    <tripinfo id="119" depart="252.00" departLane="65746828#0_0" departPos="5.10" departSpeed="0.00" departDelay="0.00" arrival="349.00" arrivalLane="226276377#0_0" arrivalPos="135.52" arrivalSpeed="14.87" duration="97.00" routeLength="841.69" waitingTime="29.00" waitingCount="1" stopTime="0.00" timeLoss="44.52" rerouteNo="0" devices="tripinfo_119" vType="DEFAULT_VEHTYPE" speedFactor="1.08" vaporized=""/>
    <tripinfo id="120" depart="255.00" departLane="-661251539_0" departPos="5.10" departSpeed="0.00" departDelay="0.88" arrival="353.00" arrivalLane="226276377#0_0" arrivalPos="135.52" arrivalSpeed="12.33" duration="98.00" routeLength="783.10" waitingTime="21.00" waitingCount="1" stopTime="0.00" timeLoss="36.70" rerouteNo="0" devices="tripinfo_120" vType="DEFAULT_VEHTYPE" speedFactor="0.89" vaporized=""/>
    <tripinfo id="91" depart="193.00" departLane="E8_0" departPos="5.10" departSpeed="0.00" departDelay="0.29" arrival="354.00" arrivalLane="-256961141#1_0" arrivalPos="204.72" arrivalSpeed="10.89" duration="161.00" routeLength="832.89" waitingTime="74.00" waitingCount="1" stopTime="0.00" timeLoss="86.77" rerouteNo="0" devices="tripinfo_91" vType="DEFAULT_VEHTYPE" speedFactor="0.82" vaporized=""/>
    <tripinfo id="142" depart="301.00" departLane="256961141#0_0" departPos="5.10" departSpeed="0.00" departDelay="0.29" arrival="360.00" arrivalLane="450554042#0_0" arrivalPos="622.66" arrivalSpeed="16.40" duration="59.00" routeLength="853.74" waitingTime="0.00" waitingCount="0" stopTime="0.00" timeLoss="6.06" rerouteNo="0" devices="tripinfo_142" vType="DEFAULT_VEHTYPE" speedFactor="1.05" vaporized=""/>
    <tripinfo id="104" depart="222.00" departLane="-661251539_0" departPos="5.10" departSpeed="0.00" departDelay="1.76" arrival="369.00" arrivalLane="450554042#0_0" arrivalPos="622.66" arrivalSpeed="18.81" duration="147.00" routeLength="1282.13" waitingTime="56.00" waitingCount="1" stopTime="0.00" timeLoss="75.52" rerouteNo="0" devices="tripinfo_104" vType="DEFAULT_VEHTYPE" speedFactor="1.14" vaporized=""/>
    <tripinfo id="41" depart="87.00" departLane="65746828#0_0" departPos="5.10" departSpeed="0.00" departDelay="0.18" arrival="372.00" arrivalLane="450554042#0_0" arrivalPos="622.66" arrivalSpeed="15.61" duration="285.00" routeLength="1340.72" waitingTime="178.00" waitingCount="2" stopTime="0.00" timeLoss="199.95" rerouteNo="0" devices="tripinfo_41" vType="DEFAULT_VEHTYPE" speedFactor="0.99" vaporized=""/>
    <tripinfo id="63" depart="135.00" departLane="-218680176#1_0" departPos="5.10" departSpeed="0.00" departDelay="1.59" arrival="373.00" arrivalLane="450554042#0_1" arrivalPos="622.66" arrivalSpeed="15.28" duration="238.00" routeLength="1616.60" waitingTime="104.00" waitingCount="2" stopTime="0.00" timeLoss="129.05" rerouteNo="0" devices="tripinfo_63" vType="DEFAULT_VEHTYPE" speedFactor="0.95" vaporized=""/>
    <tripinfo id="49" depart="105.00" departLane="E8_0" departPos="5.10" departSpeed="0.00" departDelay="1.24" arrival="381.00" arrivalLane="39907424_0" arrivalPos="316.44" arrivalSpeed="13.74" duration="276.00" routeLength="1303.68" waitingTime="170.00" waitingCount="1" stopTime="0.00" timeLoss="186.40" rerouteNo="0" devices="tripinfo_49" vType="DEFAULT_VEHTYPE" speedFactor="1.02" vaporized=""/>
    <tripinfo id="162" depart="344.00" departLane="-218680176#1_0" departPos="5.10" departSpeed="0.00" departDelay="0.94" arrival="384.00" arrivalLane="231177697#0_0" arrivalPos="74.44" arrivalSpeed="15.63" duration="40.00" routeLength="205.97" waitingTime="16.00" waitingCount="1" stopTime="0.00" timeLoss="26.22" rerouteNo="0" devices="tripinfo_162" vType="DEFAULT_VEHTYPE" speedFactor="1.15" vaporized=""/>
    <tripinfo id="57" depart="121.00" departLane="E8_0" departPos="5.10" departSpeed="0.00" departDelay="0.29" arrival="385.00" arrivalLane="39907424_0" arrivalPos="316.44" arrivalSpeed="12.00" duration="264.00" routeLength="1303.68" waitingTime="153.00" waitingCount="1" stopTime="0.00" timeLoss="167.81" rerouteNo="0" devices="tripinfo_57" vType="DEFAULT_VEHTYPE" speedFactor="0.95" vaporized=""/>
    <tripinfo id="99" depart="210.00" departLane="E8_0" departPos="5.10" departSpeed="0.00" departDelay="0.35" arrival="387.00" arrivalLane="39907424_0" arrivalPos="316.44" arrivalSpeed="13.56" duration="177.00" routeLength="1303.68" waitingTime="65.00" waitingCount="1" stopTime="0.00" timeLoss="85.60" rerouteNo="0" devices="tripinfo_99" vType="DEFAULT_VEHTYPE" speedFactor="1.00" vaporized=""/>
    <tripinfo id="147" depart="312.00" departLane="666135205#0_0" departPos="5.10" departSpeed="0.00" departDelay="0.71" arrival="391.00" arrivalLane="218680176#0_1" arrivalPos="98.94" arrivalSpeed="12.98" duration="79.00" routeLength="693.09" waitingTime="10.00" waitingCount="2" stopTime="0.00" timeLoss="26.43" rerouteNo="0" devices="tripinfo_147" vType="DEFAULT_VEHTYPE" speedFactor="0.98" vaporized=""/>
    <tripinfo id="158" depart="335.00" departLane="-661251539_0" departPos="5.10" departSpeed="0.00" departDelay="0.41" arrival="408.00" arrivalLane="226276377#0_0" arrivalPos="135.52" arrivalSpeed="12.74" duration="73.00" routeLength="783.10" waitingTime="3.00" waitingCount="1" stopTime="0.00" timeLoss="16.85" rerouteNo="0" devices="tripinfo_158" vType="DEFAULT_VEHTYPE" speedFactor="0.97" vaporized=""/>
    <tripinfo id="88" depart="187.00" departLane="-218680176#1_0" departPos="5.10" departSpeed="0.00" departDelay="0.65" arrival="420.00" arrivalLane="210831347#0_0" arrivalPos="149.88" arrivalSpeed="13.00" duration="233.00" routeLength="560.58" waitingTime="178.00" waitingCount="1" stopTime="0.00" timeLoss="191.62" rerouteNo="0" devices="tripinfo_88" vType="DEFAULT_VEHTYPE" speedFactor="1.01" vaporized=""/>