<?xml version="1.0" encoding="UTF-8"?>

<!-- generated on 2024-09-03 02:42:46 by Eclipse SUMO sumo Version 1.20.0
<configuration xmlns:xsi="http://www.w3.org/2001/XMLSchema-instance" xsi:noNamespaceSchemaLocation="http://sumo.dlr.de/xsd/sumoConfiguration.xsd">

    <input>
        <net-file value="c:\self\School\Master\Disertation\code\RESCO\resco_benchmark\environments/unirii/osm.net.xml.gz"/>
        <route-files value="c:\self\School\Master\Disertation\code\RESCO\resco_benchmark\environments/unirii/osm.passenger.trips.xml"/>
        <additional-files value="c:\self\School\Master\Disertation\code\RESCO\resco_benchmark\environments/unirii/osm.poly.xml.gz"/>
    </input>

    <output>
        <tripinfo-output value="C:\self\School\Master\Disertation\code\RESCO\results\IA2C-tr0-unirii-0-drq_norm-wait_norm\tripinfo_40.xml"/>
        <tripinfo-output.write-unfinished value="true"/>
    </output>

    <processing>
        <ignore-route-errors value="true"/>
        <time-to-teleport value="-1"/>
    </processing>

    <routing>
        <device.rerouting.adaptation-steps value="18"/>
        <device.rerouting.adaptation-interval value="10"/>
    </routing>

    <report>
        <verbose value="true"/>
        <no-warnings value="True"/>
        <duration-log.statistics value="true"/>
        <no-step-log value="True"/>
    </report>

    <traci_server>
        <remote-port value="52234"/>
    </traci_server>

    <random_number>
        <random value="true"/>
    </random_number>

    <gui_only>
        <gui-settings-file value="c:\self\School\Master\Disertation\code\RESCO\resco_benchmark\environments/unirii/osm.view.xml"/>
    </gui_only>

</configuration>
-->

<tripinfos xmlns:xsi="http://www.w3.org/2001/XMLSchema-instance" xsi:noNamespaceSchemaLocation="http://sumo.dlr.de/xsd/tripinfo_file.xsd">
    <tripinfo id="10" depart="23.00" departLane="978867529_0" departPos="5.10" departSpeed="0.00" departDelay="1.82" arrival="87.00" arrivalLane="231177697#0_1" arrivalPos="74.44" arrivalSpeed="14.86" duration="64.00" routeLength="437.06" waitingTime="28.00" waitingCount="1" stopTime="0.00" timeLoss="38.59" rerouteNo="0" devices="tripinfo_10" vType="DEFAULT_VEHTYPE" speedFactor="1.12" vaporized=""/>
    <tripinfo id="15" depart="33.00" departLane="978867529_0" departPos="5.10" departSpeed="0.00" departDelay="1.24" arrival="90.00" arrivalLane="231177697#0_1" arrivalPos="74.44" arrivalSpeed="14.25" duration="57.00" routeLength="437.06" waitingTime="19.00" waitingCount="1" stopTime="0.00" timeLoss="28.86" rerouteNo="0" devices="tripinfo_15" vType="DEFAULT_VEHTYPE" speedFactor="1.03" vaporized=""/>
    <tripinfo id="3" depart="7.00" departLane="E8_0" departPos="5.10" departSpeed="0.00" departDelay="0.65" arrival="95.00" arrivalLane="-256961141#1_0" arrivalPos="204.72" arrivalSpeed="14.78" duration="88.00" routeLength="832.89" waitingTime="23.00" waitingCount="1" stopTime="0.00" timeLoss="34.35" rerouteNo="0" devices="tripinfo_3" vType="DEFAULT_VEHTYPE" speedFactor="1.14" vaporized=""/>
    <tripinfo id="32" depart="68.00" departLane="978867529_0" departPos="5.10" departSpeed="0.00" departDelay="0.24" arrival="105.00" arrivalLane="231177697#0_1" arrivalPos="74.44" arrivalSpeed="12.06" duration="37.00" routeLength="437.06" waitingTime="0.00" waitingCount="0" stopTime="0.00" timeLoss="5.44" rerouteNo="0" devices="tripinfo_32" vType="DEFAULT_VEHTYPE" speedFactor="0.90" vaporized=""/>
    <tripinfo id="17" depart="36.00" departLane="-661251539_0" departPos="5.10" departSpeed="0.00" departDelay="0.00" arrival="134.00" arrivalLane="218680176#0_1" arrivalPos="98.94" arrivalSpeed="10.56" duration="98.00" routeLength="1001.21" waitingTime="0.00" waitingCount="0" stopTime="0.00" timeLoss="8.46" rerouteNo="0" devices="tripinfo_17" vType="DEFAULT_VEHTYPE" speedFactor="0.82" vaporized=""/>
    <tripinfo id="35" depart="75.00" departLane="-226276377#1_0" departPos="5.10" departSpeed="0.00" departDelay="0.88" arrival="145.00" arrivalLane="450554042#0_0" arrivalPos="622.66" arrivalSpeed="16.59" duration="70.00" routeLength="763.53" waitingTime="12.00" waitingCount="1" stopTime="0.00" timeLoss="22.85" rerouteNo="0" devices="tripinfo_35" vType="DEFAULT_VEHTYPE" speedFactor="1.04" vaporized=""/>
    <tripinfo id="50" depart="106.00" departLane="-218680176#1_0" departPos="5.10" departSpeed="0.00" departDelay="0.12" arrival="146.00" arrivalLane="231177697#0_0" arrivalPos="74.44" arrivalSpeed="12.57" duration="40.00" routeLength="205.97" waitingTime="11.00" waitingCount="1" stopTime="0.00" timeLoss="23.23" rerouteNo="0" devices="tripinfo_50" vType="DEFAULT_VEHTYPE" speedFactor="0.91" vaporized=""/>
    <tripinfo id="7" depart="15.00" departLane="65746828#0_0" departPos="5.10" departSpeed="0.00" departDelay="0.18" arrival="165.00" arrivalLane="218680176#0_1" arrivalPos="98.94" arrivalSpeed="12.95" duration="150.00" routeLength="602.71" waitingTime="87.00" waitingCount="2" stopTime="0.00" timeLoss="102.97" rerouteNo="0" devices="tripinfo_7" vType="DEFAULT_VEHTYPE" speedFactor="0.94" vaporized=""/>
    <tripinfo id="16" depart="34.00" departLane="256961141#0_0" departPos="5.10" departSpeed="0.00" departDelay="0.12" arrival="168.00" arrivalLane="450554042#0_1" arrivalPos="622.66" arrivalSpeed="18.04" duration="134.00" routeLength="853.74" waitingTime="74.00" waitingCount="1" stopTime="0.00" timeLoss="85.42" rerouteNo="0" devices="tripinfo_16" vType="DEFAULT_VEHTYPE" speedFactor="1.13" vaporized=""/>
    <tripinfo id="54" depart="115.00" departLane="256961141#0_0" departPos="5.10" departSpeed="0.00" departDelay="0.65" arrival="181.00" arrivalLane="450554042#0_0" arrivalPos="622.66" arrivalSpeed="14.44" duration="66.00" routeLength="853.74" waitingTime="0.00" waitingCount="0" stopTime="0.00" timeLoss="6.08" rerouteNo="0" devices="tripinfo_54" vType="DEFAULT_VEHTYPE" speedFactor="0.92" vaporized=""/>
    <tripinfo id="68" depart="144.00" departLane="-218680176#1_0" departPos="5.10" departSpeed="0.00" departDelay="0.00" arrival="184.00" arrivalLane="231177697#0_0" arrivalPos="74.44" arrivalSpeed="11.90" duration="40.00" routeLength="205.97" waitingTime="16.00" waitingCount="1" stopTime="0.00" timeLoss="24.13" rerouteNo="0" devices="tripinfo_68" vType="DEFAULT_VEHTYPE" speedFactor="0.95" vaporized=""/>
    <tripinfo id="6" depart="13.00" departLane="-218680176#1_0" departPos="5.10" departSpeed="0.00" departDelay="0.29" arrival="207.00" arrivalLane="153964138#0_1" arrivalPos="337.99" arrivalSpeed="14.24" duration="194.00" routeLength="462.27" waitingTime="151.00" waitingCount="1" stopTime="0.00" timeLoss="160.69" rerouteNo="0" devices="tripinfo_6" vType="DEFAULT_VEHTYPE" speedFactor="0.90" vaporized=""/>
    <tripinfo id="40" depart="85.00" departLane="65746828#0_0" departPos="5.10" departSpeed="0.00" departDelay="0.29" arrival="227.00" arrivalLane="210831345#1_0" arrivalPos="264.29" arrivalSpeed="13.46" duration="142.00" routeLength="446.75" waitingTime="102.00" waitingCount="1" stopTime="0.00" timeLoss="111.40" rerouteNo="0" devices="tripinfo_40" vType="DEFAULT_VEHTYPE" speedFactor="1.06" vaporized=""/>
    <tripinfo id="2" depart="5.00" departLane="666135205#0_0" departPos="5.10" departSpeed="0.00" departDelay="0.76" arrival="262.00" arrivalLane="231177697#0_0" arrivalPos="74.44" arrivalSpeed="13.39" duration="257.00" routeLength="649.17" waitingTime="194.00" waitingCount="2" stopTime="0.00" timeLoss="208.60" rerouteNo="0" devices="tripinfo_2" vType="DEFAULT_VEHTYPE" speedFactor="1.00" vaporized=""/>
    <tripinfo id="86" depart="183.00" departLane="256961141#0_0" departPos="5.10" departSpeed="0.00" departDelay="0.88" arrival="262.00" arrivalLane="39907424_0" arrivalPos="316.44" arrivalSpeed="10.83" duration="79.00" routeLength="873.95" waitingTime="0.00" waitingCount="0" stopTime="0.00" timeLoss="8.33" rerouteNo="0" devices="tripinfo_86" vType="DEFAULT_VEHTYPE" speedFactor="0.87" vaporized=""/>
    <tripinfo id="31" depart="66.00" departLane="65746828#0_0" departPos="5.10" departSpeed="0.00" departDelay="0.35" arrival="265.00" arrivalLane="231177697#0_0" arrivalPos="74.44" arrivalSpeed="12.47" duration="199.00" routeLength="558.79" waitingTime="139.00" waitingCount="2" stopTime="0.00" timeLoss="155.30" rerouteNo="0" devices="tripinfo_31" vType="DEFAULT_VEHTYPE" speedFactor="0.97" vaporized=""/>
    <tripinfo id="61" depart="130.00" departLane="978867529_0" departPos="5.10" departSpeed="0.00" departDelay="0.82" arrival="265.00" arrivalLane="218680176#0_0" arrivalPos="98.94" arrivalSpeed="15.52" duration="135.00" routeLength="442.15" waitingTime="97.00" waitingCount="1" stopTime="0.00" timeLoss="108.66" rerouteNo="0" devices="tripinfo_61" vType="DEFAULT_VEHTYPE" speedFactor="1.13" vaporized=""/>
    <tripinfo id="30" depart="64.00" departLane="E8_0" departPos="5.10" departSpeed="0.00" departDelay="0.47" arrival="268.00" arrivalLane="226276377#0_1" arrivalPos="135.52" arrivalSpeed="14.85" duration="204.00" routeLength="784.51" waitingTime="140.00" waitingCount="1" stopTime="0.00" timeLoss="152.43" rerouteNo="0" devices="tripinfo_30" vType="DEFAULT_VEHTYPE" speedFactor="1.12" vaporized=""/>
    <tripinfo id="90" depart="191.00" departLane="666135205#0_0" departPos="5.10" departSpeed="0.00" departDelay="0.41" arrival="268.00" arrivalLane="231177697#0_0" arrivalPos="74.44" arrivalSpeed="14.40" duration="77.00" routeLength="649.17" waitingTime="16.00" waitingCount="1" stopTime="0.00" timeLoss="33.10" rerouteNo="0" devices="tripinfo_90" vType="DEFAULT_VEHTYPE" speedFactor="1.11" vaporized=""/>
    <tripinfo id="75" depart="159.00" departLane="E8_0" departPos="5.10" departSpeed="0.00" departDelay="0.18" arrival="270.00" arrivalLane="226276377#0_1" arrivalPos="135.52" arrivalSpeed="13.85" duration="111.00" routeLength="784.51" waitingTime="45.00" waitingCount="1" stopTime="0.00" timeLoss="56.61" rerouteNo="0" devices="tripinfo_75" vType="DEFAULT_VEHTYPE" speedFactor="1.05" vaporized=""/>
    <tripinfo id="0" depart="0.00" departLane="65746828#0_0" departPos="5.10" departSpeed="0.00" departDelay="0.00" arrival="274.00" arrivalLane="-256961141#1_1" arrivalPos="204.72" arrivalSpeed="12.53" duration="274.00" routeLength="931.50" waitingTime="195.00" waitingCount="1" stopTime="0.00" timeLoss="207.57" rerouteNo="0" devices="tripinfo_0" vType="DEFAULT_VEHTYPE" speedFactor="0.93" vaporized=""/>
    <tripinfo id="85" depart="180.00" departLane="E8_0" departPos="5.10" departSpeed="0.00" departDelay="0.00" arrival="274.00" arrivalLane="226276377#0_1" arrivalPos="135.52" arrivalSpeed="11.98" duration="94.00" routeLength="784.51" waitingTime="17.00" waitingCount="1" stopTime="0.00" timeLoss="29.29" rerouteNo="0" devices="tripinfo_85" vType="DEFAULT_VEHTYPE" speedFactor="0.88" vaporized=""/>
    <tripinfo id="4" depart="9.00" departLane="-661251539_0" departPos="5.10" departSpeed="0.00" departDelay="0.53" arrival="276.00" arrivalLane="-256961141#1_1" arrivalPos="204.72" arrivalSpeed="16.06" duration="267.00" routeLength="872.91" waitingTime="194.00" waitingCount="1" stopTime="0.00" timeLoss="214.91" rerouteNo="0" devices="tripinfo_4" vType="DEFAULT_VEHTYPE" speedFactor="1.18" vaporized=""/>
    <tripinfo id="11" depart="24.00" departLane="-661251539_0" departPos="5.10" departSpeed="0.00" departDelay="0.71" arrival="277.00" arrivalLane="153964138#0_1" arrivalPos="337.99" arrivalSpeed="16.42" duration="253.00" routeLength="1239.04" waitingTime="153.00" waitingCount="2" stopTime="0.00" timeLoss="171.46" rerouteNo="0" devices="tripinfo_11" vType="DEFAULT_VEHTYPE" speedFactor="1.05" vaporized=""/>
    <tripinfo id="9" depart="20.00" departLane="978867529_0" departPos="5.10" departSpeed="0.00" departDelay="0.94" arrival="278.00" arrivalLane="-256961141#1_1" arrivalPos="204.72" arrivalSpeed="12.70" duration="258.00" routeLength="1459.36" waitingTime="141.00" waitingCount="2" stopTime="0.00" timeLoss="160.70" rerouteNo="0" devices="tripinfo_9" vType="DEFAULT_VEHTYPE" speedFactor="0.99" vaporized=""/>
    <tripinfo id="20" depart="43.00" departLane="666135205#0_0" departPos="5.10" departSpeed="0.00" departDelay="0.65" arrival="279.00" arrivalLane="-256961141#1_1" arrivalPos="204.72" arrivalSpeed="15.39" duration="236.00" routeLength="1068.72" waitingTime="152.00" waitingCount="2" stopTime="0.00" timeLoss="178.90" rerouteNo="0" devices="tripinfo_20" vType="DEFAULT_VEHTYPE" speedFactor="1.26" vaporized=""/>
    <tripinfo id="25" depart="53.00" departLane="-661251539_0" departPos="5.10" departSpeed="0.00" departDelay="0.06" arrival="279.00" arrivalLane="153964138#0_2" arrivalPos="337.99" arrivalSpeed="15.49" duration="226.00" routeLength="1239.04" waitingTime="116.00" waitingCount="2" stopTime="0.00" timeLoss="136.01" rerouteNo="0" devices="tripinfo_25" vType="DEFAULT_VEHTYPE" speedFactor="0.95" vaporized=""/>
    <tripinfo id="59" depart="125.00" departLane="65746828#0_0" departPos="5.10" departSpeed="0.00" departDelay="0.06" arrival="279.00" arrivalLane="153964138#0_1" arrivalPos="337.99" arrivalSpeed="18.63" duration="154.00" routeLength="834.49" waitingTime="83.00" waitingCount="2" stopTime="0.00" timeLoss="103.79" rerouteNo="0" devices="tripinfo_59" vType="DEFAULT_VEHTYPE" speedFactor="1.13" vaporized=""/>
    <tripinfo id="13" depart="28.00" departLane="-218680176#1_0" departPos="5.10" departSpeed="0.00" departDelay="0.47" arrival="282.00" arrivalLane="-256961141#1_1" arrivalPos="204.72" arrivalSpeed="13.21" duration="254.00" routeLength="1207.38" waitingTime="146.00" waitingCount="2" stopTime="0.00" timeLoss="170.22" rerouteNo="0" devices="tripinfo_13" vType="DEFAULT_VEHTYPE" speedFactor="0.98" vaporized=""/>
    <tripinfo id="42" depart="89.00" departLane="-661251539_0" departPos="5.10" departSpeed="0.00" departDelay="0.06" arrival="283.00" arrivalLane="153964138#0_1" arrivalPos="337.99" arrivalSpeed="13.32" duration="194.00" routeLength="1239.04" waitingTime="80.00" waitingCount="1" stopTime="0.00" timeLoss="96.31" rerouteNo="0" devices="tripinfo_42" vType="DEFAULT_VEHTYPE" speedFactor="0.87" vaporized=""/>
    <tripinfo id="69" depart="147.00" departLane="666135205#0_0" departPos="5.10" departSpeed="0.00" departDelay="0.88" arrival="283.00" arrivalLane="153964138#0_0" arrivalPos="337.99" arrivalSpeed="15.42" duration="136.00" routeLength="924.87" waitingTime="52.00" waitingCount="2" stopTime="0.00" timeLoss="71.32" rerouteNo="0" devices="tripinfo_69" vType="DEFAULT_VEHTYPE" speedFactor="0.99" vaporized=""/>
    <tripinfo id="103" depart="219.00" departLane="-661251539_0" departPos="5.10" departSpeed="0.00" departDelay="0.88" arrival="284.00" arrivalLane="-256961141#1_1" arrivalPos="204.72" arrivalSpeed="14.72" duration="65.00" routeLength="872.91" waitingTime="0.00" waitingCount="0" stopTime="0.00" timeLoss="8.08" rerouteNo="0" devices="tripinfo_103" vType="DEFAULT_VEHTYPE" speedFactor="1.08" vaporized=""/>
    <tripinfo id="27" depart="58.00" departLane="65746828#0_0" departPos="5.10" departSpeed="0.00" departDelay="0.82" arrival="291.00" arrivalLane="226276377#0_0" arrivalPos="135.52" arrivalSpeed="12.89" duration="233.00" routeLength="841.69" waitingTime="163.00" waitingCount="1" stopTime="0.00" timeLoss="176.74" rerouteNo="0" devices="tripinfo_27" vType="DEFAULT_VEHTYPE" speedFactor="1.00" vaporized=""/>
    <tripinfo id="14" depart="30.00" departLane="978867529_0" departPos="5.10" departSpeed="0.00" departDelay="0.35" arrival="295.00" arrivalLane="226276377#0_0" arrivalPos="135.52" arrivalSpeed="12.61" duration="265.00" routeLength="1369.55" waitingTime="155.00" waitingCount="1" stopTime="0.00" timeLoss="167.96" rerouteNo="0" devices="tripinfo_14" vType="DEFAULT_VEHTYPE" speedFactor="0.93" vaporized=""/>
    <tripinfo id="18" depart="39.00" departLane="978867529_0" departPos="5.10" departSpeed="0.00" departDelay="0.88" arrival="297.00" arrivalLane="226276377#0_0" arrivalPos="135.52" arrivalSpeed="12.99" duration="258.00" routeLength="1369.55" waitingTime="154.00" waitingCount="1" stopTime="0.00" timeLoss="168.62" rerouteNo="0" devices="tripinfo_18" vType="DEFAULT_VEHTYPE" speedFactor="1.01" vaporized=""/>
    <tripinfo id="19" depart="42.00" departLane="978867529_0" departPos="5.10" departSpeed="0.00" departDelay="1.76" arrival="300.00" arrivalLane="226276377#0_0" arrivalPos="135.52" arrivalSpeed="12.37" duration="258.00" routeLength="1369.55" waitingTime="146.00" waitingCount="1" stopTime="0.00" timeLoss="161.47" rerouteNo="0" devices="tripinfo_19" vType="DEFAULT_VEHTYPE" speedFactor="0.93" vaporized=""/>
    <tripinfo id="78" depart="166.00" departLane="-661251539_0" departPos="5.10" departSpeed="0.00" departDelay="0.82" arrival="302.00" arrivalLane="226276377#0_0" arrivalPos="135.52" arrivalSpeed="14.17" duration="136.00" routeLength="783.10" waitingTime="66.00" waitingCount="1" stopTime="0.00" timeLoss="83.01" rerouteNo="0" devices="tripinfo_78" vType="DEFAULT_VEHTYPE" speedFactor="1.04" vaporized=""/>
    <tripinfo id="79" depart="168.00" departLane="-231177697#2_0" departPos="5.10" departSpeed="0.00" departDelay="0.71" arrival="303.00" arrivalLane="153964138#0_0" arrivalPos="337.99" arrivalSpeed="15.92" duration="135.00" routeLength="417.38" waitingTime="93.00" waitingCount="2" stopTime="0.00" timeLoss="107.76" rerouteNo="0" devices="tripinfo_79" vType="DEFAULT_VEHTYPE" speedFactor="1.00" vaporized=""/>
    <tripinfo id="91" depart="193.00" departLane="E8_0" departPos="5.10" departSpeed="0.00" departDelay="0.29" arrival="303.00" arrivalLane="-256961141#1_0" arrivalPos="204.72" arrivalSpeed="12.64" duration="110.00" routeLength="832.89" waitingTime="32.00" waitingCount="1" stopTime="0.00" timeLoss="44.38" rerouteNo="0" devices="tripinfo_91" vType="DEFAULT_VEHTYPE" speedFactor="0.93" vaporized=""/>
    <tripinfo id="117" depart="248.00" departLane="-231177697#2_0" departPos="5.10" departSpeed="0.00" departDelay="0.24" arrival="306.00" arrivalLane="153964138#0_0" arrivalPos="337.99" arrivalSpeed="15.89" duration="58.00" routeLength="417.38" waitingTime="21.00" waitingCount="1" stopTime="0.00" timeLoss="29.98" rerouteNo="0" devices="tripinfo_117" vType="DEFAULT_VEHTYPE" speedFactor="0.97" vaporized=""/>
    <tripinfo id="108" depart="229.00" departLane="65746828#0_0" departPos="5.10" departSpeed="0.00" departDelay="0.29" arrival="313.00" arrivalLane="231177697#0_0" arrivalPos="74.44" arrivalSpeed="12.02" duration="84.00" routeLength="558.79" waitingTime="24.00" waitingCount="2" stopTime="0.00" timeLoss="37.52" rerouteNo="0" devices="tripinfo_108" vType="DEFAULT_VEHTYPE" speedFactor="0.89" vaporized=""/>
    <tripinfo id="116" depart="246.00" departLane="65746828#0_0" departPos="5.10" departSpeed="0.00" departDelay="0.35" arrival="315.00" arrivalLane="231177697#0_0" arrivalPos="74.44" arrivalSpeed="13.12" duration="69.00" routeLength="558.79" waitingTime="16.00" waitingCount="1" stopTime="0.00" timeLoss="28.91" rerouteNo="0" devices="tripinfo_116" vType="DEFAULT_VEHTYPE" speedFactor="1.03" vaporized=""/>
    <tripinfo id="114" depart="242.00" departLane="-226276377#1_0" departPos="5.10" departSpeed="0.00" departDelay="0.59" arrival="317.00" arrivalLane="450554042#0_0" arrivalPos="622.66" arrivalSpeed="15.81" duration="75.00" routeLength="763.53" waitingTime="14.00" waitingCount="1" stopTime="0.00" timeLoss="25.17" rerouteNo="0" devices="tripinfo_114" vType="DEFAULT_VEHTYPE" speedFactor="0.98" vaporized=""/>
    <tripinfo id="41" depart="88.00" departLane="65746828#0_0" departPos="5.10" departSpeed="0.00" departDelay="1.18" arrival="320.00" arrivalLane="450554042#0_0" arrivalPos="622.66" arrivalSpeed="16.99" duration="232.00" routeLength="1340.72" waitingTime="131.00" waitingCount="2" stopTime="0.00" timeLoss="149.84" rerouteNo="0" devices="tripinfo_41" vType="DEFAULT_VEHTYPE" speedFactor="1.03" vaporized=""/>
    <tripinfo id="110" depart="233.00" departLane="E8_0" departPos="5.10" departSpeed="0.00" departDelay="0.06" arrival="320.00" arrivalLane="226276377#0_1" arrivalPos="135.52" arrivalSpeed="11.33" duration="87.00" routeLength="784.51" waitingTime="8.00" waitingCount="1" stopTime="0.00" timeLoss="19.39" rerouteNo="0" devices="tripinfo_110" vType="DEFAULT_VEHTYPE" speedFactor="0.84" vaporized=""/>
    <tripinfo id="104" depart="222.00" departLane="-661251539_0" departPos="5.10" departSpeed="0.00" departDelay="1.76" arrival="321.00" arrivalLane="450554042#0_1" arrivalPos="622.66" arrivalSpeed="16.39" duration="99.00" routeLength="1282.13" waitingTime="1.00" waitingCount="1" stopTime="0.00" timeLoss="16.90" rerouteNo="0" devices="tripinfo_104" vType="DEFAULT_VEHTYPE" speedFactor="1.00" vaporized=""/>
    <tripinfo id="49" depart="105.00" departLane="E8_0" departPos="5.10" departSpeed="0.00" departDelay="1.24" arrival="326.00" arrivalLane="39907424_0" arrivalPos="316.44" arrivalSpeed="14.60" duration="221.00" routeLength="1303.68" waitingTime="125.00" waitingCount="1" stopTime="0.00" timeLoss="139.16" rerouteNo="0" devices="tripinfo_49" vType="DEFAULT_VEHTYPE" speedFactor="1.11" vaporized=""/>
    <tripinfo id="141" depart="299.00" departLane="65746828#0_0" departPos="5.10" departSpeed="0.00" departDelay="0.41" arrival="335.00" arrivalLane="210831345#1_0" arrivalPos="264.29" arrivalSpeed="15.19" duration="36.00" routeLength="446.75" waitingTime="0.00" waitingCount="0" stopTime="0.00" timeLoss="7.02" rerouteNo="0" devices="tripinfo_141" vType="DEFAULT_VEHTYPE" speedFactor="1.13" vaporized=""/>
    <tripinfo id="57" depart="121.00" departLane="E8_0" departPos="5.10" departSpeed="0.00" departDelay="0.29" arrival="337.00" arrivalLane="39907424_0" arrivalPos="316.44" arrivalSpeed="12.17" duration="216.00" routeLength="1303.68" waitingTime="102.00" waitingCount="1" stopTime="0.00" timeLoss="116.16" rerouteNo="0" devices="tripinfo_57" vType="DEFAULT_VEHTYPE" speedFactor="0.91" vaporized=""/>
    <tripinfo id="99" depart="210.00" departLane="E8_0" departPos="5.10" departSpeed="0.00" departDelay="0.35" arrival="339.00" arrivalLane="39907424_0" arrivalPos="316.44" arrivalSpeed="14.78" duration="129.00" routeLength="1303.68" waitingTime="19.00" waitingCount="1" stopTime="0.00" timeLoss="43.49" rerouteNo="0" devices="tripinfo_99" vType="DEFAULT_VEHTYPE" speedFactor="1.07" vaporized=""/>
    <tripinfo id="146" depart="310.00" departLane="65746828#0_0" departPos="5.10" departSpeed="0.00" departDelay="0.82" arrival="345.00" arrivalLane="210831345#1_0" arrivalPos="264.29" arrivalSpeed="13.81" duration="35.00" routeLength="446.75" waitingTime="0.00" waitingCount="0" stopTime="0.00" timeLoss="4.50" rerouteNo="0" devices="tripinfo_146" vType="DEFAULT_VEHTYPE" speedFactor="1.08" vaporized=""/>
    <tripinfo id="51" depart="108.00" departLane="666135205#0_0" departPos="5.10" departSpeed="0.00" departDelay="0.00" arrival="364.00" arrivalLane="218680176#0_1" arrivalPos="98.94" arrivalSpeed="15.16" duration="256.00" routeLength="693.09" waitingTime="193.00" waitingCount="2" stopTime="0.00" timeLoss="210.69" rerouteNo="0" devices="tripinfo_51" vType="DEFAULT_VEHTYPE" speedFactor="1.13" vaporized=""/>
    <tripinfo id="132" depart="280.00" departLane="978867529_0" departPos="5.10" departSpeed="0.00" departDelay="0.47" arrival="365.00" arrivalLane="231177697#0_1" arrivalPos="74.44" arrivalSpeed="10.52" duration="85.00" routeLength="437.06" waitingTime="41.00" waitingCount="1" stopTime="0.00" timeLoss="48.86" rerouteNo="0" devices="tripinfo_132" vType="DEFAULT_VEHTYPE" speedFactor="0.80" vaporized=""/>
    <tripinfo id="140" depart="297.00" departLane="666135205#0_0" departPos="5.10" departSpeed="0.00" departDelay="0.53" arrival="367.00" arrivalLane="153964138#0_0" arrivalPos="337.99" arrivalSpeed="17.19" duration="70.00" routeLength="924.87" waitingTime="0.00" waitingCount="0" stopTime="0.00" timeLoss="8.51" rerouteNo="0" devices="tripinfo_140" vType="DEFAULT_VEHTYPE" speedFactor="1.03" vaporized=""/>
    <tripinfo id="60" depart="128.00" departLane="666135205#0_0" departPos="5.10" departSpeed="0.00" departDelay="0.94" arrival="372.00" arrivalLane="218680176#0_1" arrivalPos="98.94" arrivalSpeed="8.96" duration="244.00" routeLength="693.09" waitingTime="149.00" waitingCount="2" stopTime="0.00" timeLoss="166.08" rerouteNo="0" devices="tripinfo_60" vType="DEFAULT_VEHTYPE" speedFactor="0.66" vaporized=""/>
    <tripinfo id="121" depart="257.00" departLane="256961141#0_0" departPos="5.10" departSpeed="0.00" departDelay="0.76" arrival="374.00" arrivalLane="450554042#0_0" arrivalPos="622.66" arrivalSpeed="14.74" duration="117.00" routeLength="853.74" waitingTime="50.00" waitingCount="1" stopTime="0.00" timeLoss="59.12" rerouteNo="0" devices="tripinfo_121" vType="DEFAULT_VEHTYPE" speedFactor="0.95" vaporized=""/>
    <tripinfo id="134" depart="285.00" departLane="65746828#0_0" departPos="5.10" departSpeed="0.00" departDelay="1.24" arrival="375.00" arrivalLane="-256961141#1_1" arrivalPos="204.72" arrivalSpeed="12.47" duration="90.00" routeLength="931.50" waitingTime="5.00" waitingCount="2" stopTime="0.00" timeLoss="21.57" rerouteNo="0" devices="tripinfo_134" vType="DEFAULT_VEHTYPE" speedFactor="0.92" vaporized=""/>
    <tripinfo id="142" depart="301.00" departLane="256961141#0_0" departPos="5.10" departSpeed="0.00" departDelay="0.29" arrival="377.00" arrivalLane="450554042#0_0" arrivalPos="622.66" arrivalSpeed="14.34" duration="76.00" routeLength="853.74" waitingTime="7.00" waitingCount="1" stopTime="0.00" timeLoss="16.80" rerouteNo="0" devices="tripinfo_142" vType="DEFAULT_VEHTYPE" speedFactor="0.93" vaporized=""/>
    <tripinfo id="148" depart="314.00" departLane="-661251539_0" departPos="5.10" departSpeed="0.00" departDelay="0.59" arrival="377.00" arrivalLane="-256961141#1_1" arrivalPos="204.72" arrivalSpeed="15.32" duration="63.00" routeLength="872.91" waitingTime="0.00" waitingCount="0" stopTime="0.00" timeLoss="8.34" rerouteNo="0" devices="tripinfo_148" vType="DEFAULT_VEHTYPE" speedFactor="1.11" vaporized=""/>
    <tripinfo id="145" depart="308.00" departLane="-218680176#1_0" departPos="5.10" departSpeed="0.00" departDelay="0.94" arrival="384.00" arrivalLane="231177697#0_0" arrivalPos="74.44" arrivalSpeed="13.45" duration="76.00" routeLength="205.97" waitingTime="52.00" waitingCount="1" stopTime="0.00" timeLoss="60.22" rerouteNo="0" devices="tripinfo_145" vType="DEFAULT_VEHTYPE" speedFactor="0.98" vaporized=""/>
    <tripinfo id="159" depart="337.00" departLane="-226276377#1_0" departPos="5.10" departSpeed="0.00" departDelay="0.29" arrival="412.00" arrivalLane="450554042#0_0" arrivalPos="622.66" arrivalSpeed="17.76" duration="75.00" routeLength="763.53" waitingTime="20.00" waitingCount="1" stopTime="0.00" timeLoss="30.89" rerouteNo="0" devices="tripinfo_159" vType="DEFAULT_VEHTYPE" speedFactor="1.09" vaporized=""/>
    <tripinfo id="120" depart="255.00" departLane="-661251539_0" departPos="5.10" departSpeed="0.00" departDelay="0.88" arrival="417.00" arrivalLane="226276377#0_0" arrivalPos="135.52" arrivalSpeed="12.76" duration="162.00" routeLength="783.10" waitingTime="92.00" waitingCount="1" stopTime="0.00" timeLoss="104.75" rerouteNo="0" devices="tripinfo_120" vType="DEFAULT_VEHTYPE" speedFactor="0.95" vaporized=""/>
    <tripinfo id="119" depart="252.00" departLane="65746828#0_0" departPos="5.10" departSpeed="0.00" departDelay="0.00" arrival="419.00" arrivalLane="226276377#0_0" arrivalPos="135.52" arrivalSpeed="16.07" duration="167.00" routeLength="841.69" waitingTime="98.00" waitingCount="2" stopTime="0.00" timeLoss="118.55" rerouteNo="0" devices="tripinfo_119" vType="DEFAULT_VEHTYPE" speedFactor="1.17" vaporized=""/>
    <tripinfo id="158" depart="335.00" departLane="-661251539_0" departPos="5.10" departSpeed="0.00" departDelay="0.41" arrival="422.00" arrivalLane="226276377#0_0" arrivalPos="135.52" arrivalSpeed="12.44" duration="87.00" routeLength="783.10" waitingTime="13.00" waitingCount="1" stopTime="0.00" timeLoss="28.68" rerouteNo="0" devices="tripinfo_158" vType="DEFAULT_VEHTYPE" speedFactor="0.93" vaporized=""/>
    <tripinfo id="113" depart="240.00" departLane="256961141#0_0" departPos="5.10" departSpeed="0.00" departDelay="0.71" arrival="428.00" arrivalLane="39907424_0" arrivalPos="316.44" arrivalSpeed="12.77" duration="188.00" routeLength="873.95" waitingTime="102.00" waitingCount="3" stopTime="0.00" timeLoss="126.10" rerouteNo="0" devices="tripinfo_113" vType="DEFAULT_VEHTYPE" speedFactor="0.99" vaporized=""/>
    <tripinfo id="147" depart="312.00" departLane="666135205#0_0" departPos="5.10" departSpeed="0.00" departDelay="0.71" arrival="441.00" arrivalLane="218680176#0_1" arrivalPos="98.94" arrivalSpeed="12.60" duration="129.00" routeLength="693.09" waitingTime="58.00" waitingCount="2" stopTime="0.00" timeLoss="72.78" rerouteNo="0" devices="tripinfo_147" vType="DEFAULT_VEHTYPE" speedFactor="0.91" vaporized=""/>
    <tripinfo id="136" depart="288.00" departLane="65746828#0_0" departPos="5.10" departSpeed="0.00" departDelay="0.00" arrival="442.00" arrivalLane="450554042#0_0" arrivalPos="622.66" arrivalSpeed="18.83" duration="154.00" routeLength="1340.72" waitingTime="58.00" waitingCount="2" stopTime="0.00" timeLoss="81.04" rerouteNo="0" devices="tripinfo_136" vType="DEFAULT_VEHTYPE" speedFactor="1.15" vaporized=""/>
    <tripinfo id="133" depart="282.00" departLane="65746828#0_0" departPos="5.10" departSpeed="0.00" departDelay="0.35" arrival="448.00" arrivalLane="450554042#0_0" arrivalPos="622.66" arrivalSpeed="15.64" duration="166.00" routeLength="1340.72" waitingTime="59.00" waitingCount="2" stopTime="0.00" timeLoss="78.48" rerouteNo="0" devices="tripinfo_133" vType="DEFAULT_VEHTYPE" speedFactor="0.96" vaporized=""/>
    <tripinfo id="181" depart="384.00" departLane="65746828#0_0" departPos="5.10" departSpeed="0.00" departDelay="0.71" arrival="451.00" arrivalLane="218680176#0_1" arrivalPos="98.94" arrivalSpeed="10.48" duration="67.00" routeLength="602.71" waitingTime="1.00" waitingCount="1" stopTime="0.00" timeLoss="10.04" rerouteNo="0" devices="tripinfo_181" vType="DEFAULT_VEHTYPE" speedFactor="0.78" vaporized=""/>