<?xml version="1.0" encoding="UTF-8"?>

<!-- generated on 2024-09-03 02:47:06 by Eclipse SUMO sumo Version 1.20.0
<configuration xmlns:xsi="http://www.w3.org/2001/XMLSchema-instance" xsi:noNamespaceSchemaLocation="http://sumo.dlr.de/xsd/sumoConfiguration.xsd">

    <input>
        <net-file value="c:\self\School\Master\Disertation\code\RESCO\resco_benchmark\environments/unirii/osm.net.xml.gz"/>
        <route-files value="c:\self\School\Master\Disertation\code\RESCO\resco_benchmark\environments/unirii/osm.passenger.trips.xml"/>
        <additional-files value="c:\self\School\Master\Disertation\code\RESCO\resco_benchmark\environments/unirii/osm.poly.xml.gz"/>
    </input>

    <output>
        <tripinfo-output value="C:\self\School\Master\Disertation\code\RESCO\results\IA2C-tr0-unirii-0-drq_norm-wait_norm\tripinfo_57.xml"/>
        <tripinfo-output.write-unfinished value="true"/>
    </output>

    <processing>
        <ignore-route-errors value="true"/>
        <time-to-teleport value="-1"/>
    </processing>

    <routing>
        <device.rerouting.adaptation-steps value="18"/>
        <device.rerouting.adaptation-interval value="10"/>
    </routing>

    <report>
        <verbose value="true"/>
        <no-warnings value="True"/>
        <duration-log.statistics value="true"/>
        <no-step-log value="True"/>
    </report>

    <traci_server>
        <remote-port value="52394"/>
    </traci_server>

    <random_number>
        <random value="true"/>
    </random_number>

    <gui_only>
        <gui-settings-file value="c:\self\School\Master\Disertation\code\RESCO\resco_benchmark\environments/unirii/osm.view.xml"/>
    </gui_only>

</configuration>
-->

<tripinfos xmlns:xsi="http://www.w3.org/2001/XMLSchema-instance" xsi:noNamespaceSchemaLocation="http://sumo.dlr.de/xsd/tripinfo_file.xsd">
    <tripinfo id="10" depart="23.00" departLane="978867529_0" departPos="5.10" departSpeed="0.00" departDelay="1.82" arrival="66.00" arrivalLane="231177697#0_1" arrivalPos="74.44" arrivalSpeed="10.40" duration="43.00" routeLength="437.06" waitingTime="0.00" waitingCount="0" stopTime="0.00" timeLoss="5.77" rerouteNo="0" devices="tripinfo_10" vType="DEFAULT_VEHTYPE" speedFactor="0.78" vaporized=""/>
    <tripinfo id="7" depart="15.00" departLane="65746828#0_0" departPos="5.10" departSpeed="0.00" departDelay="0.18" arrival="68.00" arrivalLane="218680176#0_1" arrivalPos="98.94" arrivalSpeed="11.84" duration="53.00" routeLength="602.71" waitingTime="0.00" waitingCount="0" stopTime="0.00" timeLoss="5.95" rerouteNo="0" devices="tripinfo_7" vType="DEFAULT_VEHTYPE" speedFactor="0.95" vaporized=""/>
    <tripinfo id="15" depart="33.00" departLane="978867529_0" departPos="5.10" departSpeed="0.00" departDelay="1.24" arrival="71.00" arrivalLane="231177697#0_1" arrivalPos="74.44" arrivalSpeed="11.85" duration="38.00" routeLength="437.06" waitingTime="0.00" waitingCount="0" stopTime="0.00" timeLoss="5.16" rerouteNo="0" devices="tripinfo_15" vType="DEFAULT_VEHTYPE" speedFactor="0.88" vaporized=""/>
    <tripinfo id="16" depart="34.00" departLane="256961141#0_0" departPos="5.10" departSpeed="0.00" departDelay="0.12" arrival="90.00" arrivalLane="450554042#0_1" arrivalPos="622.66" arrivalSpeed="19.32" duration="56.00" routeLength="853.74" waitingTime="0.00" waitingCount="0" stopTime="0.00" timeLoss="8.96" rerouteNo="0" devices="tripinfo_16" vType="DEFAULT_VEHTYPE" speedFactor="1.16" vaporized=""/>
    <tripinfo id="6" depart="13.00" departLane="-218680176#1_0" departPos="5.10" departSpeed="0.00" departDelay="0.29" arrival="103.00" arrivalLane="153964138#0_2" arrivalPos="337.99" arrivalSpeed="17.39" duration="90.00" routeLength="462.27" waitingTime="51.00" waitingCount="1" stopTime="0.00" timeLoss="61.71" rerouteNo="0" devices="tripinfo_6" vType="DEFAULT_VEHTYPE" speedFactor="1.08" vaporized=""/>
    <tripinfo id="3" depart="7.00" departLane="E8_0" departPos="5.10" departSpeed="0.00" departDelay="0.65" arrival="122.00" arrivalLane="-256961141#1_0" arrivalPos="204.72" arrivalSpeed="12.52" duration="115.00" routeLength="832.89" waitingTime="42.00" waitingCount="1" stopTime="0.00" timeLoss="51.81" rerouteNo="0" devices="tripinfo_3" vType="DEFAULT_VEHTYPE" speedFactor="0.96" vaporized=""/>
    <tripinfo id="50" depart="106.00" departLane="-218680176#1_0" departPos="5.10" departSpeed="0.00" departDelay="0.12" arrival="126.00" arrivalLane="231177697#0_0" arrivalPos="74.44" arrivalSpeed="12.43" duration="20.00" routeLength="205.97" waitingTime="0.00" waitingCount="0" stopTime="0.00" timeLoss="3.57" rerouteNo="0" devices="tripinfo_50" vType="DEFAULT_VEHTYPE" speedFactor="0.92" vaporized=""/>
    <tripinfo id="27" depart="58.00" departLane="65746828#0_0" departPos="5.10" departSpeed="0.00" departDelay="0.82" arrival="129.00" arrivalLane="226276377#0_0" arrivalPos="135.52" arrivalSpeed="11.93" duration="71.00" routeLength="841.69" waitingTime="0.00" waitingCount="0" stopTime="0.00" timeLoss="9.57" rerouteNo="0" devices="tripinfo_27" vType="DEFAULT_VEHTYPE" speedFactor="0.91" vaporized=""/>
    <tripinfo id="2" depart="5.00" departLane="666135205#0_0" departPos="5.10" departSpeed="0.00" departDelay="0.76" arrival="137.00" arrivalLane="231177697#0_0" arrivalPos="74.44" arrivalSpeed="13.54" duration="132.00" routeLength="649.17" waitingTime="69.00" waitingCount="2" stopTime="0.00" timeLoss="86.43" rerouteNo="0" devices="tripinfo_2" vType="DEFAULT_VEHTYPE" speedFactor="1.06" vaporized=""/>
    <tripinfo id="29" depart="63.00" departLane="-226276377#1_0" departPos="5.10" departSpeed="0.00" departDelay="1.59" arrival="144.00" arrivalLane="210831347#0_1" arrivalPos="149.88" arrivalSpeed="11.43" duration="81.00" routeLength="888.52" waitingTime="0.00" waitingCount="0" stopTime="0.00" timeLoss="12.35" rerouteNo="0" devices="tripinfo_29" vType="DEFAULT_VEHTYPE" speedFactor="0.89" vaporized=""/>
    <tripinfo id="22" depart="47.00" departLane="-218680176#1_0" departPos="5.10" departSpeed="0.00" departDelay="0.41" arrival="154.00" arrivalLane="210831345#1_1" arrivalPos="264.29" arrivalSpeed="12.75" duration="107.00" routeLength="699.94" waitingTime="37.00" waitingCount="2" stopTime="0.00" timeLoss="53.70" rerouteNo="0" devices="tripinfo_22" vType="DEFAULT_VEHTYPE" speedFactor="0.97" vaporized=""/>
    <tripinfo id="1" depart="3.00" departLane="-231177697#2_0" departPos="5.10" departSpeed="0.00" departDelay="0.88" arrival="155.00" arrivalLane="210831345#1_1" arrivalPos="264.29" arrivalSpeed="13.80" duration="152.00" routeLength="696.92" waitingTime="85.00" waitingCount="2" stopTime="0.00" timeLoss="104.50" rerouteNo="0" devices="tripinfo_1" vType="DEFAULT_VEHTYPE" speedFactor="1.07" vaporized=""/>
    <tripinfo id="11" depart="24.00" departLane="-661251539_0" departPos="5.10" departSpeed="0.00" departDelay="0.71" arrival="155.00" arrivalLane="153964138#0_0" arrivalPos="337.99" arrivalSpeed="15.16" duration="131.00" routeLength="1239.04" waitingTime="18.00" waitingCount="1" stopTime="0.00" timeLoss="37.53" rerouteNo="0" devices="tripinfo_11" vType="DEFAULT_VEHTYPE" speedFactor="0.92" vaporized=""/>
    <tripinfo id="25" depart="53.00" departLane="-661251539_0" departPos="5.10" departSpeed="0.00" departDelay="0.06" arrival="155.00" arrivalLane="153964138#0_1" arrivalPos="337.99" arrivalSpeed="17.22" duration="102.00" routeLength="1239.04" waitingTime="5.00" waitingCount="1" stopTime="0.00" timeLoss="20.75" rerouteNo="0" devices="tripinfo_25" vType="DEFAULT_VEHTYPE" speedFactor="1.06" vaporized=""/>
    <tripinfo id="21" depart="45.00" departLane="-231177697#2_0" departPos="5.10" departSpeed="0.00" departDelay="0.53" arrival="157.00" arrivalLane="210831345#1_0" arrivalPos="264.29" arrivalSpeed="15.79" duration="112.00" routeLength="696.92" waitingTime="46.00" waitingCount="2" stopTime="0.00" timeLoss="68.12" rerouteNo="0" devices="tripinfo_21" vType="DEFAULT_VEHTYPE" speedFactor="1.18" vaporized=""/>
    <tripinfo id="34" depart="72.00" departLane="-231177697#2_0" departPos="5.10" departSpeed="0.00" departDelay="0.00" arrival="159.00" arrivalLane="210831345#1_1" arrivalPos="264.29" arrivalSpeed="13.24" duration="87.00" routeLength="696.92" waitingTime="15.00" waitingCount="1" stopTime="0.00" timeLoss="35.75" rerouteNo="0" devices="tripinfo_34" vType="DEFAULT_VEHTYPE" speedFactor="1.00" vaporized=""/>
    <tripinfo id="32" depart="68.00" departLane="978867529_0" departPos="5.10" departSpeed="0.00" departDelay="0.24" arrival="163.00" arrivalLane="231177697#0_1" arrivalPos="74.44" arrivalSpeed="13.27" duration="95.00" routeLength="437.06" waitingTime="58.00" waitingCount="1" stopTime="0.00" timeLoss="67.13" rerouteNo="0" devices="tripinfo_32" vType="DEFAULT_VEHTYPE" speedFactor="1.03" vaporized=""/>
    <tripinfo id="23" depart="50.00" departLane="-218680176#1_0" departPos="5.10" departSpeed="0.00" departDelay="1.29" arrival="164.00" arrivalLane="210831345#1_0" arrivalPos="264.29" arrivalSpeed="14.50" duration="114.00" routeLength="699.94" waitingTime="40.00" waitingCount="3" stopTime="0.00" timeLoss="66.30" rerouteNo="0" devices="tripinfo_23" vType="DEFAULT_VEHTYPE" speedFactor="1.08" vaporized=""/>
    <tripinfo id="17" depart="36.00" departLane="-661251539_0" departPos="5.10" departSpeed="0.00" departDelay="0.00" arrival="165.00" arrivalLane="218680176#0_1" arrivalPos="98.94" arrivalSpeed="13.84" duration="129.00" routeLength="1001.21" waitingTime="43.00" waitingCount="1" stopTime="0.00" timeLoss="55.44" rerouteNo="0" devices="tripinfo_17" vType="DEFAULT_VEHTYPE" speedFactor="1.00" vaporized=""/>
    <tripinfo id="39" depart="83.00" departLane="-231177697#2_0" departPos="5.10" departSpeed="0.00" departDelay="0.41" arrival="165.00" arrivalLane="210831345#1_0" arrivalPos="264.29" arrivalSpeed="11.30" duration="82.00" routeLength="696.92" waitingTime="12.00" waitingCount="1" stopTime="0.00" timeLoss="23.95" rerouteNo="0" devices="tripinfo_39" vType="DEFAULT_VEHTYPE" speedFactor="0.89" vaporized=""/>
    <tripinfo id="5" depart="11.00" departLane="-226276377#1_0" departPos="5.10" departSpeed="0.00" departDelay="0.41" arrival="167.00" arrivalLane="218680176#0_1" arrivalPos="98.94" arrivalSpeed="14.86" duration="156.00" routeLength="1158.55" waitingTime="64.00" waitingCount="2" stopTime="0.00" timeLoss="83.05" rerouteNo="0" devices="tripinfo_5" vType="DEFAULT_VEHTYPE" speedFactor="1.11" vaporized=""/>
    <tripinfo id="40" depart="85.00" departLane="65746828#0_0" departPos="5.10" departSpeed="0.00" departDelay="0.29" arrival="173.00" arrivalLane="210831345#1_0" arrivalPos="264.29" arrivalSpeed="14.07" duration="88.00" routeLength="446.75" waitingTime="46.00" waitingCount="1" stopTime="0.00" timeLoss="55.80" rerouteNo="0" devices="tripinfo_40" vType="DEFAULT_VEHTYPE" speedFactor="1.02" vaporized=""/>
    <tripinfo id="54" depart="115.00" departLane="256961141#0_0" departPos="5.10" departSpeed="0.00" departDelay="0.65" arrival="181.00" arrivalLane="450554042#0_0" arrivalPos="622.66" arrivalSpeed="14.48" duration="66.00" routeLength="853.74" waitingTime="0.00" waitingCount="0" stopTime="0.00" timeLoss="5.86" rerouteNo="0" devices="tripinfo_54" vType="DEFAULT_VEHTYPE" speedFactor="0.91" vaporized=""/>
    <tripinfo id="28" depart="60.00" departLane="-226276377#1_0" departPos="5.10" departSpeed="0.00" departDelay="0.71" arrival="187.00" arrivalLane="231177697#0_0" arrivalPos="74.44" arrivalSpeed="12.32" duration="127.00" routeLength="1114.63" waitingTime="27.00" waitingCount="2" stopTime="0.00" timeLoss="42.60" rerouteNo="0" devices="tripinfo_28" vType="DEFAULT_VEHTYPE" speedFactor="0.92" vaporized=""/>
    <tripinfo id="61" depart="130.00" departLane="978867529_0" departPos="5.10" departSpeed="0.00" departDelay="0.82" arrival="189.00" arrivalLane="218680176#0_0" arrivalPos="98.94" arrivalSpeed="14.92" duration="59.00" routeLength="442.15" waitingTime="20.00" waitingCount="1" stopTime="0.00" timeLoss="31.58" rerouteNo="0" devices="tripinfo_61" vType="DEFAULT_VEHTYPE" speedFactor="1.09" vaporized=""/>
    <tripinfo id="12" depart="26.00" departLane="E8_0" departPos="5.10" departSpeed="0.00" departDelay="0.59" arrival="197.00" arrivalLane="210831347#0_1" arrivalPos="149.88" arrivalSpeed="11.35" duration="171.00" routeLength="1367.17" waitingTime="41.00" waitingCount="2" stopTime="0.00" timeLoss="57.38" rerouteNo="0" devices="tripinfo_12" vType="DEFAULT_VEHTYPE" speedFactor="0.84" vaporized=""/>
    <tripinfo id="26" depart="56.00" departLane="-231177697#2_0" departPos="5.10" departSpeed="0.00" departDelay="0.94" arrival="198.00" arrivalLane="450554042#0_0" arrivalPos="622.66" arrivalSpeed="14.62" duration="142.00" routeLength="1613.58" waitingTime="14.00" waitingCount="1" stopTime="0.00" timeLoss="27.98" rerouteNo="0" devices="tripinfo_26" vType="DEFAULT_VEHTYPE" speedFactor="0.90" vaporized=""/>
    <tripinfo id="53" depart="113.00" departLane="-226276377#1_0" departPos="5.10" departSpeed="0.00" departDelay="0.76" arrival="198.00" arrivalLane="210831347#0_1" arrivalPos="149.88" arrivalSpeed="13.18" duration="85.00" routeLength="888.52" waitingTime="7.00" waitingCount="1" stopTime="0.00" timeLoss="21.26" rerouteNo="0" devices="tripinfo_53" vType="DEFAULT_VEHTYPE" speedFactor="0.96" vaporized=""/>
    <tripinfo id="36" depart="77.00" departLane="978867529_0" departPos="5.10" departSpeed="0.00" departDelay="0.76" arrival="208.00" arrivalLane="210831345#1_0" arrivalPos="264.29" arrivalSpeed="10.60" duration="131.00" routeLength="951.92" waitingTime="35.00" waitingCount="2" stopTime="0.00" timeLoss="51.46" rerouteNo="0" devices="tripinfo_36" vType="DEFAULT_VEHTYPE" speedFactor="0.83" vaporized=""/>
    <tripinfo id="55" depart="117.00" departLane="978867529_0" departPos="5.10" departSpeed="0.00" departDelay="0.53" arrival="208.00" arrivalLane="210831345#1_1" arrivalPos="264.29" arrivalSpeed="12.12" duration="91.00" routeLength="951.92" waitingTime="8.00" waitingCount="1" stopTime="0.00" timeLoss="21.93" rerouteNo="0" devices="tripinfo_55" vType="DEFAULT_VEHTYPE" speedFactor="0.95" vaporized=""/>
    <tripinfo id="62" depart="132.00" departLane="-218680176#1_0" departPos="5.10" departSpeed="0.00" departDelay="0.71" arrival="214.00" arrivalLane="210831345#1_1" arrivalPos="264.29" arrivalSpeed="15.89" duration="82.00" routeLength="699.94" waitingTime="28.00" waitingCount="1" stopTime="0.00" timeLoss="39.23" rerouteNo="0" devices="tripinfo_62" vType="DEFAULT_VEHTYPE" speedFactor="1.20" vaporized=""/>
    <tripinfo id="68" depart="144.00" departLane="-218680176#1_0" departPos="5.10" departSpeed="0.00" departDelay="0.00" arrival="216.00" arrivalLane="231177697#0_0" arrivalPos="74.44" arrivalSpeed="11.47" duration="72.00" routeLength="205.97" waitingTime="42.00" waitingCount="2" stopTime="0.00" timeLoss="55.37" rerouteNo="0" devices="tripinfo_68" vType="DEFAULT_VEHTYPE" speedFactor="0.91" vaporized=""/>
    <tripinfo id="69" depart="147.00" departLane="666135205#0_0" departPos="5.10" departSpeed="0.00" departDelay="0.88" arrival="219.00" arrivalLane="153964138#0_0" arrivalPos="337.99" arrivalSpeed="15.69" duration="72.00" routeLength="924.87" waitingTime="0.00" waitingCount="0" stopTime="0.00" timeLoss="7.46" rerouteNo="0" devices="tripinfo_69" vType="DEFAULT_VEHTYPE" speedFactor="0.97" vaporized=""/>
    <tripinfo id="41" depart="88.00" departLane="65746828#0_0" departPos="5.10" departSpeed="0.00" departDelay="1.18" arrival="220.00" arrivalLane="450554042#0_0" arrivalPos="622.66" arrivalSpeed="18.17" duration="132.00" routeLength="1340.72" waitingTime="44.00" waitingCount="1" stopTime="0.00" timeLoss="58.09" rerouteNo="0" devices="tripinfo_41" vType="DEFAULT_VEHTYPE" speedFactor="1.13" vaporized=""/>
    <tripinfo id="49" depart="105.00" departLane="E8_0" departPos="5.10" departSpeed="0.00" departDelay="1.24" arrival="222.00" arrivalLane="39907424_0" arrivalPos="316.44" arrivalSpeed="11.16" duration="117.00" routeLength="1303.68" waitingTime="0.00" waitingCount="0" stopTime="0.00" timeLoss="11.07" rerouteNo="0" devices="tripinfo_49" vType="DEFAULT_VEHTYPE" speedFactor="0.86" vaporized=""/>
    <tripinfo id="57" depart="121.00" departLane="E8_0" departPos="5.10" departSpeed="0.00" departDelay="0.29" arrival="223.00" arrivalLane="39907424_0" arrivalPos="316.44" arrivalSpeed="13.79" duration="102.00" routeLength="1303.68" waitingTime="0.00" waitingCount="0" stopTime="0.00" timeLoss="19.20" rerouteNo="0" devices="tripinfo_57" vType="DEFAULT_VEHTYPE" speedFactor="1.09" vaporized=""/>
    <tripinfo id="79" depart="168.00" departLane="-231177697#2_0" departPos="5.10" departSpeed="0.00" departDelay="0.71" arrival="228.00" arrivalLane="153964138#0_0" arrivalPos="337.99" arrivalSpeed="14.91" duration="60.00" routeLength="417.38" waitingTime="24.00" waitingCount="1" stopTime="0.00" timeLoss="32.86" rerouteNo="0" devices="tripinfo_79" vType="DEFAULT_VEHTYPE" speedFactor="0.97" vaporized=""/>
    <tripinfo id="78" depart="166.00" departLane="-661251539_0" departPos="5.10" departSpeed="0.00" departDelay="0.82" arrival="242.00" arrivalLane="226276377#0_0" arrivalPos="135.52" arrivalSpeed="12.96" duration="76.00" routeLength="783.10" waitingTime="1.00" waitingCount="1" stopTime="0.00" timeLoss="17.54" rerouteNo="0" devices="tripinfo_78" vType="DEFAULT_VEHTYPE" speedFactor="0.93" vaporized=""/>
    <tripinfo id="31" depart="66.00" departLane="65746828#0_0" departPos="5.10" departSpeed="0.00" departDelay="0.35" arrival="243.00" arrivalLane="231177697#0_0" arrivalPos="74.44" arrivalSpeed="11.53" duration="177.00" routeLength="558.79" waitingTime="120.00" waitingCount="1" stopTime="0.00" timeLoss="129.51" rerouteNo="0" devices="tripinfo_31" vType="DEFAULT_VEHTYPE" speedFactor="0.88" vaporized=""/>
    <tripinfo id="91" depart="193.00" departLane="E8_0" departPos="5.10" departSpeed="0.00" departDelay="0.29" arrival="257.00" arrivalLane="-256961141#1_0" arrivalPos="204.72" arrivalSpeed="14.87" duration="64.00" routeLength="832.89" waitingTime="0.00" waitingCount="0" stopTime="0.00" timeLoss="8.11" rerouteNo="0" devices="tripinfo_91" vType="DEFAULT_VEHTYPE" speedFactor="1.08" vaporized=""/>
    <tripinfo id="59" depart="125.00" departLane="65746828#0_0" departPos="5.10" departSpeed="0.00" departDelay="0.06" arrival="259.00" arrivalLane="153964138#0_1" arrivalPos="337.99" arrivalSpeed="15.04" duration="134.00" routeLength="834.49" waitingTime="62.00" waitingCount="1" stopTime="0.00" timeLoss="72.69" rerouteNo="0" devices="tripinfo_59" vType="DEFAULT_VEHTYPE" speedFactor="0.93" vaporized=""/>
    <tripinfo id="51" depart="108.00" departLane="666135205#0_0" departPos="5.10" departSpeed="0.00" departDelay="0.00" arrival="265.00" arrivalLane="218680176#0_1" arrivalPos="98.94" arrivalSpeed="13.01" duration="157.00" routeLength="693.09" waitingTime="91.00" waitingCount="2" stopTime="0.00" timeLoss="106.14" rerouteNo="0" devices="tripinfo_51" vType="DEFAULT_VEHTYPE" speedFactor="1.00" vaporized=""/>
    <tripinfo id="60" depart="128.00" departLane="666135205#0_0" departPos="5.10" departSpeed="0.00" departDelay="0.94" arrival="268.00" arrivalLane="218680176#0_1" arrivalPos="98.94" arrivalSpeed="11.74" duration="140.00" routeLength="693.09" waitingTime="72.00" waitingCount="1" stopTime="0.00" timeLoss="84.06" rerouteNo="0" devices="tripinfo_60" vType="DEFAULT_VEHTYPE" speedFactor="0.91" vaporized=""/>
    <tripinfo id="30" depart="64.00" departLane="E8_0" departPos="5.10" departSpeed="0.00" departDelay="0.47" arrival="294.00" arrivalLane="226276377#0_1" arrivalPos="135.52" arrivalSpeed="12.58" duration="230.00" routeLength="784.51" waitingTime="157.00" waitingCount="1" stopTime="0.00" timeLoss="167.41" rerouteNo="0" devices="tripinfo_30" vType="DEFAULT_VEHTYPE" speedFactor="0.92" vaporized=""/>
    <tripinfo id="35" depart="75.00" departLane="-226276377#1_0" departPos="5.10" departSpeed="0.00" departDelay="0.88" arrival="295.00" arrivalLane="450554042#0_0" arrivalPos="622.66" arrivalSpeed="17.03" duration="220.00" routeLength="763.53" waitingTime="162.00" waitingCount="1" stopTime="0.00" timeLoss="173.29" rerouteNo="0" devices="tripinfo_35" vType="DEFAULT_VEHTYPE" speedFactor="1.03" vaporized=""/>
    <tripinfo id="75" depart="159.00" departLane="E8_0" departPos="5.10" departSpeed="0.00" departDelay="0.18" arrival="295.00" arrivalLane="226276377#0_1" arrivalPos="135.52" arrivalSpeed="12.32" duration="136.00" routeLength="784.51" waitingTime="65.00" waitingCount="1" stopTime="0.00" timeLoss="74.51" rerouteNo="0" devices="tripinfo_75" vType="DEFAULT_VEHTYPE" speedFactor="0.92" vaporized=""/>
    <tripinfo id="0" depart="0.00" departLane="65746828#0_0" departPos="5.10" departSpeed="0.00" departDelay="0.00" arrival="297.00" arrivalLane="-256961141#1_1" arrivalPos="204.72" arrivalSpeed="14.26" duration="297.00" routeLength="931.50" waitingTime="220.00" waitingCount="2" stopTime="0.00" timeLoss="239.86" rerouteNo="0" devices="tripinfo_0" vType="DEFAULT_VEHTYPE" speedFactor="1.10" vaporized=""/>
    <tripinfo id="117" depart="248.00" departLane="-231177697#2_0" departPos="5.10" departSpeed="0.00" departDelay="0.24" arrival="298.00" arrivalLane="153964138#0_0" arrivalPos="337.99" arrivalSpeed="16.34" duration="50.00" routeLength="417.38" waitingTime="13.00" waitingCount="1" stopTime="0.00" timeLoss="22.62" rerouteNo="0" devices="tripinfo_117" vType="DEFAULT_VEHTYPE" speedFactor="1.00" vaporized=""/>
    <tripinfo id="85" depart="180.00" departLane="E8_0" departPos="5.10" departSpeed="0.00" departDelay="0.00" arrival="300.00" arrivalLane="226276377#0_1" arrivalPos="135.52" arrivalSpeed="11.08" duration="120.00" routeLength="784.51" waitingTime="38.00" waitingCount="1" stopTime="0.00" timeLoss="48.50" rerouteNo="0" devices="tripinfo_85" vType="DEFAULT_VEHTYPE" speedFactor="0.81" vaporized=""/>
    <tripinfo id="114" depart="242.00" departLane="-226276377#1_0" departPos="5.10" departSpeed="0.00" departDelay="0.59" arrival="300.00" arrivalLane="450554042#0_0" arrivalPos="622.66" arrivalSpeed="15.70" duration="58.00" routeLength="763.53" waitingTime="0.00" waitingCount="0" stopTime="0.00" timeLoss="7.59" rerouteNo="0" devices="tripinfo_114" vType="DEFAULT_VEHTYPE" speedFactor="0.97" vaporized=""/>
    <tripinfo id="110" depart="233.00" departLane="E8_0" departPos="5.10" departSpeed="0.00" departDelay="0.06" arrival="301.00" arrivalLane="226276377#0_1" arrivalPos="135.52" arrivalSpeed="11.85" duration="68.00" routeLength="784.51" waitingTime="0.00" waitingCount="0" stopTime="0.00" timeLoss="10.03" rerouteNo="0" devices="tripinfo_110" vType="DEFAULT_VEHTYPE" speedFactor="0.99" vaporized=""/>
    <tripinfo id="4" depart="9.00" departLane="-661251539_0" departPos="5.10" departSpeed="0.00" departDelay="0.53" arrival="302.00" arrivalLane="-256961141#1_1" arrivalPos="204.72" arrivalSpeed="12.14" duration="293.00" routeLength="872.91" waitingTime="215.00" waitingCount="1" stopTime="0.00" timeLoss="228.94" rerouteNo="0" devices="tripinfo_4" vType="DEFAULT_VEHTYPE" speedFactor="0.95" vaporized=""/>
    <tripinfo id="13" depart="28.00" departLane="-218680176#1_0" departPos="5.10" departSpeed="0.00" departDelay="0.47" arrival="303.00" arrivalLane="-256961141#1_1" arrivalPos="204.72" arrivalSpeed="15.07" duration="275.00" routeLength="1207.38" waitingTime="173.00" waitingCount="3" stopTime="0.00" timeLoss="201.45" rerouteNo="0" devices="tripinfo_13" vType="DEFAULT_VEHTYPE" speedFactor="1.12" vaporized=""/>
    <tripinfo id="33" depart="70.00" departLane="-231177697#2_0" departPos="5.10" departSpeed="0.00" departDelay="0.12" arrival="305.00" arrivalLane="-256961141#1_1" arrivalPos="204.72" arrivalSpeed="12.83" duration="235.00" routeLength="1204.36" waitingTime="129.00" waitingCount="1" stopTime="0.00" timeLoss="149.57" rerouteNo="0" devices="tripinfo_33" vType="DEFAULT_VEHTYPE" speedFactor="0.95" vaporized=""/>
    <tripinfo id="20" depart="43.00" departLane="666135205#0_0" departPos="5.10" departSpeed="0.00" departDelay="0.65" arrival="308.00" arrivalLane="-256961141#1_1" arrivalPos="204.72" arrivalSpeed="11.80" duration="265.00" routeLength="1068.72" waitingTime="170.00" waitingCount="2" stopTime="0.00" timeLoss="187.83" rerouteNo="0" devices="tripinfo_20" vType="DEFAULT_VEHTYPE" speedFactor="0.94" vaporized=""/>
    <tripinfo id="103" depart="219.00" departLane="-661251539_0" departPos="5.10" departSpeed="0.00" departDelay="0.88" arrival="309.00" arrivalLane="-256961141#1_1" arrivalPos="204.72" arrivalSpeed="13.95" duration="90.00" routeLength="872.91" waitingTime="13.00" waitingCount="1" stopTime="0.00" timeLoss="29.68" rerouteNo="0" devices="tripinfo_103" vType="DEFAULT_VEHTYPE" speedFactor="1.01" vaporized=""/>
    <tripinfo id="86" depart="183.00" departLane="256961141#0_0" departPos="5.10" departSpeed="0.00" departDelay="0.88" arrival="311.00" arrivalLane="39907424_0" arrivalPos="316.44" arrivalSpeed="13.51" duration="128.00" routeLength="873.95" waitingTime="54.00" waitingCount="1" stopTime="0.00" timeLoss="68.40" rerouteNo="0" devices="tripinfo_86" vType="DEFAULT_VEHTYPE" speedFactor="1.03" vaporized=""/>
    <tripinfo id="108" depart="229.00" departLane="65746828#0_0" departPos="5.10" departSpeed="0.00" departDelay="0.29" arrival="312.00" arrivalLane="231177697#0_0" arrivalPos="74.44" arrivalSpeed="13.39" duration="83.00" routeLength="558.79" waitingTime="32.00" waitingCount="1" stopTime="0.00" timeLoss="41.54" rerouteNo="0" devices="tripinfo_108" vType="DEFAULT_VEHTYPE" speedFactor="1.01" vaporized=""/>
    <tripinfo id="90" depart="191.00" departLane="666135205#0_0" departPos="5.10" departSpeed="0.00" departDelay="0.41" arrival="315.00" arrivalLane="231177697#0_0" arrivalPos="74.44" arrivalSpeed="13.58" duration="124.00" routeLength="649.17" waitingTime="58.00" waitingCount="2" stopTime="0.00" timeLoss="74.03" rerouteNo="0" devices="tripinfo_90" vType="DEFAULT_VEHTYPE" speedFactor="0.99" vaporized=""/>
    <tripinfo id="116" depart="246.00" departLane="65746828#0_0" departPos="5.10" departSpeed="0.00" departDelay="0.35" arrival="316.00" arrivalLane="231177697#0_0" arrivalPos="74.44" arrivalSpeed="13.82" duration="70.00" routeLength="558.79" waitingTime="15.00" waitingCount="1" stopTime="0.00" timeLoss="30.22" rerouteNo="0" devices="tripinfo_116" vType="DEFAULT_VEHTYPE" speedFactor="1.03" vaporized=""/>
    <tripinfo id="92" depart="195.00" departLane="-661251539_0" departPos="5.10" departSpeed="0.00" departDelay="0.18" arrival="322.00" arrivalLane="210831347#0_1" arrivalPos="149.88" arrivalSpeed="11.17" duration="127.00" routeLength="731.18" waitingTime="47.00" waitingCount="2" stopTime="0.00" timeLoss="60.76" rerouteNo="0" devices="tripinfo_92" vType="DEFAULT_VEHTYPE" speedFactor="0.81" vaporized=""/>
    <tripinfo id="106" depart="225.00" departLane="256961141#0_0" departPos="5.10" departSpeed="0.00" departDelay="0.53" arrival="324.00" arrivalLane="210831347#0_1" arrivalPos="149.88" arrivalSpeed="12.15" duration="99.00" routeLength="937.44" waitingTime="14.00" waitingCount="1" stopTime="0.00" timeLoss="31.22" rerouteNo="0" devices="tripinfo_106" vType="DEFAULT_VEHTYPE" speedFactor="0.96" vaporized=""/>
    <tripinfo id="93" depart="197.00" departLane="978867529_0" departPos="5.10" departSpeed="0.00" departDelay="0.06" arrival="326.00" arrivalLane="210831345#1_1" arrivalPos="264.29" arrivalSpeed="15.64" duration="129.00" routeLength="951.92" waitingTime="54.00" waitingCount="2" stopTime="0.00" timeLoss="70.69" rerouteNo="0" devices="tripinfo_93" vType="DEFAULT_VEHTYPE" speedFactor="1.13" vaporized=""/>
    <tripinfo id="113" depart="240.00" departLane="256961141#0_0" departPos="5.10" departSpeed="0.00" departDelay="0.71" arrival="328.00" arrivalLane="39907424_0" arrivalPos="316.44" arrivalSpeed="11.67" duration="88.00" routeLength="873.95" waitingTime="2.00" waitingCount="1" stopTime="0.00" timeLoss="19.50" rerouteNo="0" devices="tripinfo_113" vType="DEFAULT_VEHTYPE" speedFactor="0.89" vaporized=""/>
    <tripinfo id="132" depart="280.00" departLane="978867529_0" departPos="5.10" departSpeed="0.00" departDelay="0.47" arrival="339.00" arrivalLane="231177697#0_1" arrivalPos="74.44" arrivalSpeed="11.70" duration="59.00" routeLength="437.06" waitingTime="17.00" waitingCount="1" stopTime="0.00" timeLoss="25.72" rerouteNo="0" devices="tripinfo_132" vType="DEFAULT_VEHTYPE" speedFactor="0.86" vaporized=""/>
    <tripinfo id="121" depart="257.00" departLane="256961141#0_0" departPos="5.10" departSpeed="0.00" departDelay="0.76" arrival="348.00" arrivalLane="450554042#0_0" arrivalPos="622.66" arrivalSpeed="16.12" duration="91.00" routeLength="853.74" waitingTime="24.00" waitingCount="1" stopTime="0.00" timeLoss="34.53" rerouteNo="0" devices="tripinfo_121" vType="DEFAULT_VEHTYPE" speedFactor="0.97" vaporized=""/>
    <tripinfo id="146" depart="310.00" departLane="65746828#0_0" departPos="5.10" departSpeed="0.00" departDelay="0.82" arrival="358.00" arrivalLane="210831345#1_1" arrivalPos="264.29" arrivalSpeed="13.16" duration="48.00" routeLength="446.75" waitingTime="3.00" waitingCount="1" stopTime="0.00" timeLoss="13.85" rerouteNo="0" devices="tripinfo_146" vType="DEFAULT_VEHTYPE" speedFactor="0.95" vaporized=""/>
    <tripinfo id="141" depart="299.00" departLane="65746828#0_0" departPos="5.10" departSpeed="0.00" departDelay="0.41" arrival="360.00" arrivalLane="210831345#1_0" arrivalPos="264.29" arrivalSpeed="10.90" duration="61.00" routeLength="446.75" waitingTime="11.00" waitingCount="1" stopTime="0.00" timeLoss="21.38" rerouteNo="0" devices="tripinfo_141" vType="DEFAULT_VEHTYPE" speedFactor="0.83" vaporized=""/>
    <tripinfo id="142" depart="301.00" departLane="256961141#0_0" departPos="5.10" departSpeed="0.00" departDelay="0.29" arrival="360.00" arrivalLane="450554042#0_0" arrivalPos="622.66" arrivalSpeed="16.98" duration="59.00" routeLength="853.74" waitingTime="0.00" waitingCount="0" stopTime="0.00" timeLoss="5.80" rerouteNo="0" devices="tripinfo_142" vType="DEFAULT_VEHTYPE" speedFactor="1.03" vaporized=""/>