<?xml version="1.0" encoding="UTF-8"?>

<!-- generated on 2024-09-03 02:44:44 by Eclipse SUMO sumo Version 1.20.0
<configuration xmlns:xsi="http://www.w3.org/2001/XMLSchema-instance" xsi:noNamespaceSchemaLocation="http://sumo.dlr.de/xsd/sumoConfiguration.xsd">

    <input>
        <net-file value="c:\self\School\Master\Disertation\code\RESCO\resco_benchmark\environments/unirii/osm.net.xml.gz"/>
        <route-files value="c:\self\School\Master\Disertation\code\RESCO\resco_benchmark\environments/unirii/osm.passenger.trips.xml"/>
        <additional-files value="c:\self\School\Master\Disertation\code\RESCO\resco_benchmark\environments/unirii/osm.poly.xml.gz"/>
    </input>

    <output>
        <tripinfo-output value="C:\self\School\Master\Disertation\code\RESCO\results\IA2C-tr0-unirii-0-drq_norm-wait_norm\tripinfo_48.xml"/>
        <tripinfo-output.write-unfinished value="true"/>
    </output>

    <processing>
        <ignore-route-errors value="true"/>
        <time-to-teleport value="-1"/>
    </processing>

    <routing>
        <device.rerouting.adaptation-steps value="18"/>
        <device.rerouting.adaptation-interval value="10"/>
    </routing>

    <report>
        <verbose value="true"/>
        <no-warnings value="True"/>
        <duration-log.statistics value="true"/>
        <no-step-log value="True"/>
    </report>

    <traci_server>
        <remote-port value="52311"/>
    </traci_server>

    <random_number>
        <random value="true"/>
    </random_number>

    <gui_only>
        <gui-settings-file value="c:\self\School\Master\Disertation\code\RESCO\resco_benchmark\environments/unirii/osm.view.xml"/>
    </gui_only>

</configuration>
-->

<tripinfos xmlns:xsi="http://www.w3.org/2001/XMLSchema-instance" xsi:noNamespaceSchemaLocation="http://sumo.dlr.de/xsd/tripinfo_file.xsd">
    <tripinfo id="6" depart="13.00" departLane="-218680176#1_0" departPos="5.10" departSpeed="0.00" departDelay="0.29" arrival="54.00" arrivalLane="153964138#0_2" arrivalPos="337.99" arrivalSpeed="16.40" duration="41.00" routeLength="462.27" waitingTime="2.00" waitingCount="1" stopTime="0.00" timeLoss="11.79" rerouteNo="0" devices="tripinfo_6" vType="DEFAULT_VEHTYPE" speedFactor="1.04" vaporized=""/>
    <tripinfo id="4" depart="9.00" departLane="-661251539_0" departPos="5.10" departSpeed="0.00" departDelay="0.53" arrival="70.00" arrivalLane="-256961141#1_1" arrivalPos="204.72" arrivalSpeed="14.94" duration="61.00" routeLength="872.91" waitingTime="0.00" waitingCount="0" stopTime="0.00" timeLoss="8.86" rerouteNo="0" devices="tripinfo_4" vType="DEFAULT_VEHTYPE" speedFactor="1.16" vaporized=""/>
    <tripinfo id="0" depart="0.00" departLane="65746828#0_0" departPos="5.10" departSpeed="0.00" departDelay="0.00" arrival="80.00" arrivalLane="-256961141#1_1" arrivalPos="204.72" arrivalSpeed="12.98" duration="80.00" routeLength="931.50" waitingTime="7.00" waitingCount="1" stopTime="0.00" timeLoss="17.25" rerouteNo="0" devices="tripinfo_0" vType="DEFAULT_VEHTYPE" speedFactor="0.99" vaporized=""/>
    <tripinfo id="1" depart="3.00" departLane="-231177697#2_0" departPos="5.10" departSpeed="0.00" departDelay="0.88" arrival="92.00" arrivalLane="210831345#1_0" arrivalPos="264.29" arrivalSpeed="10.74" duration="89.00" routeLength="696.92" waitingTime="14.00" waitingCount="1" stopTime="0.00" timeLoss="23.85" rerouteNo="0" devices="tripinfo_1" vType="DEFAULT_VEHTYPE" speedFactor="0.79" vaporized=""/>
    <tripinfo id="21" depart="45.00" departLane="-231177697#2_0" departPos="5.10" departSpeed="0.00" departDelay="0.53" arrival="100.00" arrivalLane="210831345#1_1" arrivalPos="264.29" arrivalSpeed="13.90" duration="55.00" routeLength="696.92" waitingTime="0.00" waitingCount="0" stopTime="0.00" timeLoss="6.09" rerouteNo="0" devices="tripinfo_21" vType="DEFAULT_VEHTYPE" speedFactor="1.04" vaporized=""/>
    <tripinfo id="50" depart="106.00" departLane="-218680176#1_0" departPos="5.10" departSpeed="0.00" departDelay="0.12" arrival="127.00" arrivalLane="231177697#0_0" arrivalPos="74.44" arrivalSpeed="11.70" duration="21.00" routeLength="205.97" waitingTime="0.00" waitingCount="0" stopTime="0.00" timeLoss="3.82" rerouteNo="0" devices="tripinfo_50" vType="DEFAULT_VEHTYPE" speedFactor="0.89" vaporized=""/>
    <tripinfo id="35" depart="75.00" departLane="-226276377#1_0" departPos="5.10" departSpeed="0.00" departDelay="0.88" arrival="132.00" arrivalLane="450554042#0_0" arrivalPos="622.66" arrivalSpeed="16.06" duration="57.00" routeLength="763.53" waitingTime="0.00" waitingCount="0" stopTime="0.00" timeLoss="7.37" rerouteNo="0" devices="tripinfo_35" vType="DEFAULT_VEHTYPE" speedFactor="0.98" vaporized=""/>
    <tripinfo id="10" depart="23.00" departLane="978867529_0" departPos="5.10" departSpeed="0.00" departDelay="1.82" arrival="138.00" arrivalLane="231177697#0_1" arrivalPos="74.44" arrivalSpeed="13.95" duration="115.00" routeLength="437.06" waitingTime="76.00" waitingCount="1" stopTime="0.00" timeLoss="86.59" rerouteNo="0" devices="tripinfo_10" vType="DEFAULT_VEHTYPE" speedFactor="1.01" vaporized=""/>
    <tripinfo id="30" depart="64.00" departLane="E8_0" departPos="5.10" departSpeed="0.00" departDelay="0.47" arrival="138.00" arrivalLane="226276377#0_1" arrivalPos="135.52" arrivalSpeed="10.76" duration="74.00" routeLength="784.51" waitingTime="0.00" waitingCount="0" stopTime="0.00" timeLoss="6.28" rerouteNo="0" devices="tripinfo_30" vType="DEFAULT_VEHTYPE" speedFactor="0.85" vaporized=""/>
    <tripinfo id="17" depart="36.00" departLane="-661251539_0" departPos="5.10" departSpeed="0.00" departDelay="0.00" arrival="139.00" arrivalLane="218680176#0_1" arrivalPos="98.94" arrivalSpeed="14.39" duration="103.00" routeLength="1001.21" waitingTime="19.00" waitingCount="1" stopTime="0.00" timeLoss="32.68" rerouteNo="0" devices="tripinfo_17" vType="DEFAULT_VEHTYPE" speedFactor="1.04" vaporized=""/>
    <tripinfo id="15" depart="33.00" departLane="978867529_0" departPos="5.10" departSpeed="0.00" departDelay="1.24" arrival="141.00" arrivalLane="231177697#0_1" arrivalPos="74.44" arrivalSpeed="13.22" duration="108.00" routeLength="437.06" waitingTime="68.00" waitingCount="1" stopTime="0.00" timeLoss="77.39" rerouteNo="0" devices="tripinfo_15" vType="DEFAULT_VEHTYPE" speedFactor="0.95" vaporized=""/>
    <tripinfo id="32" depart="68.00" departLane="978867529_0" departPos="5.10" departSpeed="0.00" departDelay="0.24" arrival="142.00" arrivalLane="231177697#0_1" arrivalPos="74.44" arrivalSpeed="13.49" duration="74.00" routeLength="437.06" waitingTime="36.00" waitingCount="1" stopTime="0.00" timeLoss="47.04" rerouteNo="0" devices="tripinfo_32" vType="DEFAULT_VEHTYPE" speedFactor="1.06" vaporized=""/>
    <tripinfo id="47" depart="100.00" departLane="-218680176#1_0" departPos="5.10" departSpeed="0.00" departDelay="0.47" arrival="150.00" arrivalLane="210831347#0_0" arrivalPos="149.88" arrivalSpeed="12.79" duration="50.00" routeLength="560.58" waitingTime="0.00" waitingCount="0" stopTime="0.00" timeLoss="8.53" rerouteNo="0" devices="tripinfo_47" vType="DEFAULT_VEHTYPE" speedFactor="1.01" vaporized=""/>
    <tripinfo id="68" depart="144.00" departLane="-218680176#1_0" departPos="5.10" departSpeed="0.00" departDelay="0.00" arrival="164.00" arrivalLane="231177697#0_0" arrivalPos="74.44" arrivalSpeed="12.51" duration="20.00" routeLength="205.97" waitingTime="0.00" waitingCount="0" stopTime="0.00" timeLoss="3.87" rerouteNo="0" devices="tripinfo_68" vType="DEFAULT_VEHTYPE" speedFactor="0.95" vaporized=""/>
    <tripinfo id="13" depart="28.00" departLane="-218680176#1_0" departPos="5.10" departSpeed="0.00" departDelay="0.47" arrival="167.00" arrivalLane="-256961141#1_1" arrivalPos="204.72" arrivalSpeed="12.02" duration="139.00" routeLength="1207.38" waitingTime="35.00" waitingCount="1" stopTime="0.00" timeLoss="48.48" rerouteNo="0" devices="tripinfo_13" vType="DEFAULT_VEHTYPE" speedFactor="0.91" vaporized=""/>
    <tripinfo id="2" depart="5.00" departLane="666135205#0_0" departPos="5.10" departSpeed="0.00" departDelay="0.76" arrival="186.00" arrivalLane="231177697#0_0" arrivalPos="74.44" arrivalSpeed="16.50" duration="181.00" routeLength="649.17" waitingTime="127.00" waitingCount="1" stopTime="0.00" timeLoss="142.06" rerouteNo="0" devices="tripinfo_2" vType="DEFAULT_VEHTYPE" speedFactor="1.23" vaporized=""/>
    <tripinfo id="27" depart="58.00" departLane="65746828#0_0" departPos="5.10" departSpeed="0.00" departDelay="0.82" arrival="191.00" arrivalLane="226276377#0_0" arrivalPos="135.52" arrivalSpeed="13.70" duration="133.00" routeLength="841.69" waitingTime="65.00" waitingCount="1" stopTime="0.00" timeLoss="78.33" rerouteNo="0" devices="tripinfo_27" vType="DEFAULT_VEHTYPE" speedFactor="1.02" vaporized=""/>
    <tripinfo id="61" depart="130.00" departLane="978867529_0" departPos="5.10" departSpeed="0.00" departDelay="0.82" arrival="192.00" arrivalLane="218680176#0_0" arrivalPos="98.94" arrivalSpeed="15.32" duration="62.00" routeLength="442.15" waitingTime="25.00" waitingCount="1" stopTime="0.00" timeLoss="36.72" rerouteNo="0" devices="tripinfo_61" vType="DEFAULT_VEHTYPE" speedFactor="1.17" vaporized=""/>
    <tripinfo id="45" depart="97.00" departLane="-218680176#1_0" departPos="5.10" departSpeed="0.00" departDelay="1.71" arrival="194.00" arrivalLane="226276377#0_0" arrivalPos="135.52" arrivalSpeed="13.60" duration="97.00" routeLength="1117.57" waitingTime="9.00" waitingCount="1" stopTime="0.00" timeLoss="23.29" rerouteNo="0" devices="tripinfo_45" vType="DEFAULT_VEHTYPE" speedFactor="1.04" vaporized=""/>
    <tripinfo id="3" depart="7.00" departLane="E8_0" departPos="5.10" departSpeed="0.00" departDelay="0.65" arrival="196.00" arrivalLane="-256961141#1_0" arrivalPos="204.72" arrivalSpeed="13.44" duration="189.00" routeLength="832.89" waitingTime="119.00" waitingCount="1" stopTime="0.00" timeLoss="130.44" rerouteNo="0" devices="tripinfo_3" vType="DEFAULT_VEHTYPE" speedFactor="1.04" vaporized=""/>
    <tripinfo id="16" depart="34.00" departLane="256961141#0_0" departPos="5.10" departSpeed="0.00" departDelay="0.12" arrival="197.00" arrivalLane="450554042#0_0" arrivalPos="622.66" arrivalSpeed="16.72" duration="163.00" routeLength="853.74" waitingTime="98.00" waitingCount="1" stopTime="0.00" timeLoss="108.78" rerouteNo="0" devices="tripinfo_16" vType="DEFAULT_VEHTYPE" speedFactor="1.01" vaporized=""/>
    <tripinfo id="25" depart="53.00" departLane="-661251539_0" departPos="5.10" departSpeed="0.00" departDelay="0.06" arrival="202.00" arrivalLane="153964138#0_1" arrivalPos="337.99" arrivalSpeed="17.70" duration="149.00" routeLength="1239.04" waitingTime="48.00" waitingCount="2" stopTime="0.00" timeLoss="70.71" rerouteNo="0" devices="tripinfo_25" vType="DEFAULT_VEHTYPE" speedFactor="1.10" vaporized=""/>
    <tripinfo id="22" depart="47.00" departLane="-218680176#1_0" departPos="5.10" departSpeed="0.00" departDelay="0.41" arrival="203.00" arrivalLane="210831345#1_1" arrivalPos="264.29" arrivalSpeed="13.01" duration="156.00" routeLength="699.94" waitingTime="88.00" waitingCount="2" stopTime="0.00" timeLoss="104.90" rerouteNo="0" devices="tripinfo_22" vType="DEFAULT_VEHTYPE" speedFactor="1.01" vaporized=""/>
    <tripinfo id="54" depart="115.00" departLane="256961141#0_0" departPos="5.10" departSpeed="0.00" departDelay="0.65" arrival="203.00" arrivalLane="450554042#0_0" arrivalPos="622.66" arrivalSpeed="14.14" duration="88.00" routeLength="853.74" waitingTime="18.00" waitingCount="1" stopTime="0.00" timeLoss="28.03" rerouteNo="0" devices="tripinfo_54" vType="DEFAULT_VEHTYPE" speedFactor="0.90" vaporized=""/>
    <tripinfo id="23" depart="50.00" departLane="-218680176#1_0" departPos="5.10" departSpeed="0.00" departDelay="1.29" arrival="205.00" arrivalLane="210831345#1_1" arrivalPos="264.29" arrivalSpeed="15.38" duration="155.00" routeLength="699.94" waitingTime="87.00" waitingCount="2" stopTime="0.00" timeLoss="108.14" rerouteNo="0" devices="tripinfo_23" vType="DEFAULT_VEHTYPE" speedFactor="1.11" vaporized=""/>
    <tripinfo id="11" depart="24.00" departLane="-661251539_0" departPos="5.10" departSpeed="0.00" departDelay="0.71" arrival="207.00" arrivalLane="153964138#0_0" arrivalPos="337.99" arrivalSpeed="14.76" duration="183.00" routeLength="1239.04" waitingTime="73.00" waitingCount="2" stopTime="0.00" timeLoss="90.94" rerouteNo="0" devices="tripinfo_11" vType="DEFAULT_VEHTYPE" speedFactor="0.94" vaporized=""/>
    <tripinfo id="42" depart="89.00" departLane="-661251539_0" departPos="5.10" departSpeed="0.00" departDelay="0.06" arrival="207.00" arrivalLane="153964138#0_1" arrivalPos="337.99" arrivalSpeed="13.69" duration="118.00" routeLength="1239.04" waitingTime="3.00" waitingCount="1" stopTime="0.00" timeLoss="16.04" rerouteNo="0" devices="tripinfo_42" vType="DEFAULT_VEHTYPE" speedFactor="0.84" vaporized=""/>
    <tripinfo id="62" depart="132.00" departLane="-218680176#1_0" departPos="5.10" departSpeed="0.00" departDelay="0.71" arrival="207.00" arrivalLane="210831345#1_1" arrivalPos="264.29" arrivalSpeed="13.64" duration="75.00" routeLength="699.94" waitingTime="6.00" waitingCount="2" stopTime="0.00" timeLoss="24.16" rerouteNo="0" devices="tripinfo_62" vType="DEFAULT_VEHTYPE" speedFactor="1.03" vaporized=""/>
    <tripinfo id="29" depart="63.00" departLane="-226276377#1_0" departPos="5.10" departSpeed="0.00" departDelay="1.59" arrival="208.00" arrivalLane="210831347#0_1" arrivalPos="149.88" arrivalSpeed="15.73" duration="145.00" routeLength="888.52" waitingTime="77.00" waitingCount="1" stopTime="0.00" timeLoss="92.00" rerouteNo="0" devices="tripinfo_29" vType="DEFAULT_VEHTYPE" speedFactor="1.15" vaporized=""/>
    <tripinfo id="26" depart="56.00" departLane="-231177697#2_0" departPos="5.10" departSpeed="0.00" departDelay="0.94" arrival="222.00" arrivalLane="450554042#0_0" arrivalPos="622.66" arrivalSpeed="15.24" duration="166.00" routeLength="1613.58" waitingTime="40.00" waitingCount="2" stopTime="0.00" timeLoss="60.61" rerouteNo="0" devices="tripinfo_26" vType="DEFAULT_VEHTYPE" speedFactor="0.97" vaporized=""/>
    <tripinfo id="75" depart="159.00" departLane="E8_0" departPos="5.10" departSpeed="0.00" departDelay="0.18" arrival="222.00" arrivalLane="226276377#0_1" arrivalPos="135.52" arrivalSpeed="13.24" duration="63.00" routeLength="784.51" waitingTime="0.00" waitingCount="0" stopTime="0.00" timeLoss="5.75" rerouteNo="0" devices="tripinfo_75" vType="DEFAULT_VEHTYPE" speedFactor="1.00" vaporized=""/>
    <tripinfo id="44" depart="94.00" departLane="-218680176#1_0" departPos="5.10" departSpeed="0.00" departDelay="0.82" arrival="224.00" arrivalLane="-256961141#1_1" arrivalPos="204.72" arrivalSpeed="12.35" duration="130.00" routeLength="1207.38" waitingTime="32.00" waitingCount="1" stopTime="0.00" timeLoss="44.06" rerouteNo="0" devices="tripinfo_44" vType="DEFAULT_VEHTYPE" speedFactor="0.95" vaporized=""/>
    <tripinfo id="46" depart="98.00" departLane="978867529_0" departPos="5.10" departSpeed="0.00" departDelay="0.59" arrival="225.00" arrivalLane="210831347#0_0" arrivalPos="149.88" arrivalSpeed="11.77" duration="127.00" routeLength="812.56" waitingTime="50.00" waitingCount="2" stopTime="0.00" timeLoss="65.28" rerouteNo="0" devices="tripinfo_46" vType="DEFAULT_VEHTYPE" speedFactor="0.90" vaporized=""/>
    <tripinfo id="40" depart="85.00" departLane="65746828#0_0" departPos="5.10" departSpeed="0.00" departDelay="0.29" arrival="228.00" arrivalLane="210831345#1_0" arrivalPos="264.29" arrivalSpeed="10.39" duration="143.00" routeLength="446.75" waitingTime="94.00" waitingCount="1" stopTime="0.00" timeLoss="103.59" rerouteNo="0" devices="tripinfo_40" vType="DEFAULT_VEHTYPE" speedFactor="0.83" vaporized=""/>
    <tripinfo id="49" depart="105.00" departLane="E8_0" departPos="5.10" departSpeed="0.00" departDelay="1.24" arrival="228.00" arrivalLane="39907424_0" arrivalPos="316.44" arrivalSpeed="14.33" duration="123.00" routeLength="1303.68" waitingTime="25.00" waitingCount="1" stopTime="0.00" timeLoss="39.60" rerouteNo="0" devices="tripinfo_49" vType="DEFAULT_VEHTYPE" speedFactor="1.09" vaporized=""/>
    <tripinfo id="79" depart="168.00" departLane="-231177697#2_0" departPos="5.10" departSpeed="0.00" departDelay="0.71" arrival="228.00" arrivalLane="153964138#0_0" arrivalPos="337.99" arrivalSpeed="15.68" duration="60.00" routeLength="417.38" waitingTime="24.00" waitingCount="1" stopTime="0.00" timeLoss="32.66" rerouteNo="0" devices="tripinfo_79" vType="DEFAULT_VEHTYPE" speedFactor="0.98" vaporized=""/>
    <tripinfo id="74" depart="157.00" departLane="-226276377#1_0" departPos="5.10" departSpeed="0.00" departDelay="0.29" arrival="233.00" arrivalLane="210831345#1_0" arrivalPos="264.29" arrivalSpeed="14.11" duration="76.00" routeLength="977.93" waitingTime="0.00" waitingCount="0" stopTime="0.00" timeLoss="8.32" rerouteNo="0" devices="tripinfo_74" vType="DEFAULT_VEHTYPE" speedFactor="1.02" vaporized=""/>
    <tripinfo id="57" depart="121.00" departLane="E8_0" departPos="5.10" departSpeed="0.00" departDelay="0.29" arrival="235.00" arrivalLane="39907424_0" arrivalPos="316.44" arrivalSpeed="12.46" duration="114.00" routeLength="1303.68" waitingTime="7.00" waitingCount="1" stopTime="0.00" timeLoss="20.97" rerouteNo="0" devices="tripinfo_57" vType="DEFAULT_VEHTYPE" speedFactor="0.98" vaporized=""/>
    <tripinfo id="64" depart="136.00" departLane="978867529_0" departPos="5.10" departSpeed="0.00" departDelay="0.47" arrival="253.00" arrivalLane="39907424_0" arrivalPos="316.44" arrivalSpeed="14.31" duration="117.00" routeLength="1216.15" waitingTime="19.00" waitingCount="1" stopTime="0.00" timeLoss="40.37" rerouteNo="0" devices="tripinfo_64" vType="DEFAULT_VEHTYPE" speedFactor="1.07" vaporized=""/>
    <tripinfo id="19" depart="42.00" departLane="978867529_0" departPos="5.10" departSpeed="0.00" departDelay="1.76" arrival="254.00" arrivalLane="226276377#0_0" arrivalPos="135.52" arrivalSpeed="13.67" duration="212.00" routeLength="1369.55" waitingTime="107.00" waitingCount="1" stopTime="0.00" timeLoss="123.25" rerouteNo="0" devices="tripinfo_19" vType="DEFAULT_VEHTYPE" speedFactor="1.01" vaporized=""/>
    <tripinfo id="91" depart="193.00" departLane="E8_0" departPos="5.10" departSpeed="0.00" departDelay="0.29" arrival="255.00" arrivalLane="-256961141#1_0" arrivalPos="204.72" arrivalSpeed="14.68" duration="62.00" routeLength="832.89" waitingTime="0.00" waitingCount="0" stopTime="0.00" timeLoss="7.28" rerouteNo="0" devices="tripinfo_91" vType="DEFAULT_VEHTYPE" speedFactor="1.12" vaporized=""/>
    <tripinfo id="88" depart="187.00" departLane="-218680176#1_0" departPos="5.10" departSpeed="0.00" departDelay="0.65" arrival="256.00" arrivalLane="210831347#0_0" arrivalPos="149.88" arrivalSpeed="12.37" duration="69.00" routeLength="560.58" waitingTime="4.00" waitingCount="1" stopTime="0.00" timeLoss="23.61" rerouteNo="0" devices="tripinfo_88" vType="DEFAULT_VEHTYPE" speedFactor="0.92" vaporized=""/>
    <tripinfo id="14" depart="30.00" departLane="978867529_0" departPos="5.10" departSpeed="0.00" departDelay="0.35" arrival="262.00" arrivalLane="226276377#0_0" arrivalPos="135.52" arrivalSpeed="12.35" duration="232.00" routeLength="1369.55" waitingTime="120.00" waitingCount="1" stopTime="0.00" timeLoss="137.60" rerouteNo="0" devices="tripinfo_14" vType="DEFAULT_VEHTYPE" speedFactor="0.95" vaporized=""/>
    <tripinfo id="85" depart="180.00" departLane="E8_0" departPos="5.10" departSpeed="0.00" departDelay="0.00" arrival="267.00" arrivalLane="226276377#0_1" arrivalPos="135.52" arrivalSpeed="13.39" duration="87.00" routeLength="784.51" waitingTime="22.00" waitingCount="1" stopTime="0.00" timeLoss="31.96" rerouteNo="0" devices="tripinfo_85" vType="DEFAULT_VEHTYPE" speedFactor="1.04" vaporized=""/>
    <tripinfo id="9" depart="20.00" departLane="978867529_0" departPos="5.10" departSpeed="0.00" departDelay="0.94" arrival="271.00" arrivalLane="-256961141#1_1" arrivalPos="204.72" arrivalSpeed="15.77" duration="251.00" routeLength="1459.36" waitingTime="145.00" waitingCount="2" stopTime="0.00" timeLoss="168.99" rerouteNo="0" devices="tripinfo_9" vType="DEFAULT_VEHTYPE" speedFactor="1.17" vaporized=""/>
    <tripinfo id="82" depart="174.00" departLane="978867529_0" departPos="5.10" departSpeed="0.00" departDelay="0.35" arrival="276.00" arrivalLane="-256961141#1_1" arrivalPos="204.72" arrivalSpeed="13.04" duration="102.00" routeLength="1459.36" waitingTime="0.00" waitingCount="0" stopTime="0.00" timeLoss="8.24" rerouteNo="0" devices="tripinfo_82" vType="DEFAULT_VEHTYPE" speedFactor="1.03" vaporized=""/>
    <tripinfo id="115" depart="244.00" departLane="-218680176#1_0" departPos="5.10" departSpeed="0.00" departDelay="0.47" arrival="277.00" arrivalLane="153964138#0_2" arrivalPos="337.99" arrivalSpeed="16.80" duration="33.00" routeLength="462.27" waitingTime="0.00" waitingCount="0" stopTime="0.00" timeLoss="4.97" rerouteNo="0" devices="tripinfo_115" vType="DEFAULT_VEHTYPE" speedFactor="1.08" vaporized=""/>
    <tripinfo id="66" depart="140.00" departLane="978867529_0" departPos="5.10" departSpeed="0.00" departDelay="0.24" arrival="278.00" arrivalLane="450554042#0_0" arrivalPos="622.66" arrivalSpeed="17.77" duration="138.00" routeLength="1868.58" waitingTime="14.00" waitingCount="1" stopTime="0.00" timeLoss="32.63" rerouteNo="0" devices="tripinfo_66" vType="DEFAULT_VEHTYPE" speedFactor="1.12" vaporized=""/>
    <tripinfo id="51" depart="108.00" departLane="666135205#0_0" departPos="5.10" departSpeed="0.00" departDelay="0.00" arrival="290.00" arrivalLane="218680176#0_1" arrivalPos="98.94" arrivalSpeed="14.06" duration="182.00" routeLength="693.09" waitingTime="117.00" waitingCount="2" stopTime="0.00" timeLoss="132.46" rerouteNo="0" devices="tripinfo_51" vType="DEFAULT_VEHTYPE" speedFactor="1.04" vaporized=""/>
    <tripinfo id="110" depart="233.00" departLane="E8_0" departPos="5.10" departSpeed="0.00" departDelay="0.06" arrival="290.00" arrivalLane="226276377#0_1" arrivalPos="135.52" arrivalSpeed="15.34" duration="57.00" routeLength="784.51" waitingTime="0.00" waitingCount="0" stopTime="0.00" timeLoss="5.79" rerouteNo="0" devices="tripinfo_110" vType="DEFAULT_VEHTYPE" speedFactor="1.12" vaporized=""/>
    <tripinfo id="5" depart="11.00" departLane="-226276377#1_0" departPos="5.10" departSpeed="0.00" departDelay="0.41" arrival="292.00" arrivalLane="218680176#0_1" arrivalPos="98.94" arrivalSpeed="13.22" duration="281.00" routeLength="1158.55" waitingTime="179.00" waitingCount="3" stopTime="0.00" timeLoss="201.63" rerouteNo="0" devices="tripinfo_5" vType="DEFAULT_VEHTYPE" speedFactor="1.02" vaporized=""/>
    <tripinfo id="48" depart="102.00" departLane="E8_0" departPos="5.10" departSpeed="0.00" departDelay="0.35" arrival="295.00" arrivalLane="218680176#0_1" arrivalPos="98.94" arrivalSpeed="13.47" duration="193.00" routeLength="1637.20" waitingTime="55.00" waitingCount="2" stopTime="0.00" timeLoss="75.86" rerouteNo="0" devices="tripinfo_48" vType="DEFAULT_VEHTYPE" speedFactor="0.98" vaporized=""/>
    <tripinfo id="105" depart="223.00" departLane="-231177697#2_0" departPos="5.10" departSpeed="0.00" departDelay="0.65" arrival="296.00" arrivalLane="39907424_0" arrivalPos="316.44" arrivalSpeed="14.46" duration="73.00" routeLength="961.15" waitingTime="1.00" waitingCount="1" stopTime="0.00" timeLoss="11.49" rerouteNo="0" devices="tripinfo_105" vType="DEFAULT_VEHTYPE" speedFactor="1.11" vaporized=""/>
    <tripinfo id="38" depart="81.00" departLane="E8_0" departPos="5.10" departSpeed="0.00" departDelay="0.53" arrival="297.00" arrivalLane="218680176#0_1" arrivalPos="98.94" arrivalSpeed="12.91" duration="216.00" routeLength="1637.20" waitingTime="69.00" waitingCount="2" stopTime="0.00" timeLoss="99.35" rerouteNo="0" devices="tripinfo_38" vType="DEFAULT_VEHTYPE" speedFactor="0.99" vaporized=""/>
    <tripinfo id="63" depart="135.00" departLane="-218680176#1_0" departPos="5.10" departSpeed="0.00" departDelay="1.59" arrival="298.00" arrivalLane="450554042#0_0" arrivalPos="622.66" arrivalSpeed="13.67" duration="163.00" routeLength="1616.60" waitingTime="19.00" waitingCount="1" stopTime="0.00" timeLoss="37.82" rerouteNo="0" devices="tripinfo_63" vType="DEFAULT_VEHTYPE" speedFactor="0.83" vaporized=""/>
    <tripinfo id="43" depart="92.00" departLane="E8_0" departPos="5.10" departSpeed="0.00" departDelay="0.94" arrival="300.00" arrivalLane="218680176#0_1" arrivalPos="98.94" arrivalSpeed="11.56" duration="208.00" routeLength="1637.20" waitingTime="52.00" waitingCount="2" stopTime="0.00" timeLoss="79.31" rerouteNo="0" devices="tripinfo_43" vType="DEFAULT_VEHTYPE" speedFactor="0.89" vaporized=""/>
    <tripinfo id="76" depart="161.00" departLane="-661251539_0" departPos="5.10" departSpeed="0.00" departDelay="0.06" arrival="301.00" arrivalLane="218680176#0_1" arrivalPos="98.94" arrivalSpeed="11.57" duration="140.00" routeLength="1001.21" waitingTime="36.00" waitingCount="3" stopTime="0.00" timeLoss="61.09" rerouteNo="0" devices="tripinfo_76" vType="DEFAULT_VEHTYPE" speedFactor="0.93" vaporized=""/>
    <tripinfo id="70" depart="149.00" departLane="256961141#0_0" departPos="5.10" departSpeed="0.00" departDelay="0.76" arrival="305.00" arrivalLane="218680176#0_1" arrivalPos="98.94" arrivalSpeed="11.98" duration="156.00" routeLength="1207.47" waitingTime="52.00" waitingCount="1" stopTime="0.00" timeLoss="64.57" rerouteNo="0" devices="tripinfo_70" vType="DEFAULT_VEHTYPE" speedFactor="0.93" vaporized=""/>
    <tripinfo id="89" depart="189.00" departLane="-661251539_0" departPos="5.10" departSpeed="0.00" departDelay="0.53" arrival="307.00" arrivalLane="218680176#0_1" arrivalPos="98.94" arrivalSpeed="13.53" duration="118.00" routeLength="1001.21" waitingTime="25.00" waitingCount="2" stopTime="0.00" timeLoss="43.89" rerouteNo="0" devices="tripinfo_89" vType="DEFAULT_VEHTYPE" speedFactor="0.99" vaporized=""/>
    <tripinfo id="71" depart="151.00" departLane="-231177697#2_0" departPos="5.10" departSpeed="0.00" departDelay="0.65" arrival="311.00" arrivalLane="39907424_0" arrivalPos="316.44" arrivalSpeed="13.27" duration="160.00" routeLength="961.15" waitingTime="76.00" waitingCount="2" stopTime="0.00" timeLoss="93.62" rerouteNo="0" devices="tripinfo_71" vType="DEFAULT_VEHTYPE" speedFactor="1.02" vaporized=""/>
    <tripinfo id="114" depart="242.00" departLane="-226276377#1_0" departPos="5.10" departSpeed="0.00" departDelay="0.59" arrival="312.00" arrivalLane="450554042#0_0" arrivalPos="622.66" arrivalSpeed="17.76" duration="70.00" routeLength="763.53" waitingTime="14.00" waitingCount="1" stopTime="0.00" timeLoss="26.35" rerouteNo="0" devices="tripinfo_114" vType="DEFAULT_VEHTYPE" speedFactor="1.10" vaporized=""/>
    <tripinfo id="28" depart="60.00" departLane="-226276377#1_0" departPos="5.10" departSpeed="0.00" departDelay="0.71" arrival="313.00" arrivalLane="231177697#0_0" arrivalPos="74.44" arrivalSpeed="10.98" duration="253.00" routeLength="1114.63" waitingTime="140.00" waitingCount="2" stopTime="0.00" timeLoss="157.28" rerouteNo="0" devices="tripinfo_28" vType="DEFAULT_VEHTYPE" speedFactor="0.81" vaporized=""/>
    <tripinfo id="103" depart="219.00" departLane="-661251539_0" departPos="5.10" departSpeed="0.00" departDelay="0.88" arrival="317.00" arrivalLane="-256961141#1_1" arrivalPos="204.72" arrivalSpeed="10.64" duration="98.00" routeLength="872.91" waitingTime="8.00" waitingCount="2" stopTime="0.00" timeLoss="25.50" rerouteNo="0" devices="tripinfo_103" vType="DEFAULT_VEHTYPE" speedFactor="0.84" vaporized=""/>
    <tripinfo id="90" depart="191.00" departLane="666135205#0_0" departPos="5.10" departSpeed="0.00" departDelay="0.41" arrival="318.00" arrivalLane="231177697#0_0" arrivalPos="74.44" arrivalSpeed="14.50" duration="127.00" routeLength="649.17" waitingTime="63.00" waitingCount="1" stopTime="0.00" timeLoss="81.24" rerouteNo="0" devices="tripinfo_90" vType="DEFAULT_VEHTYPE" speedFactor="1.06" vaporized=""/>
    <tripinfo id="33" depart="70.00" departLane="-231177697#2_0" departPos="5.10" departSpeed="0.00" departDelay="0.12" arrival="319.00" arrivalLane="-256961141#1_1" arrivalPos="204.72" arrivalSpeed="12.98" duration="249.00" routeLength="1204.36" waitingTime="146.00" waitingCount="1" stopTime="0.00" timeLoss="161.26" rerouteNo="0" devices="tripinfo_33" vType="DEFAULT_VEHTYPE" speedFactor="0.94" vaporized=""/>
    <tripinfo id="65" depart="138.00" departLane="-231177697#2_0" departPos="5.10" departSpeed="0.00" departDelay="0.35" arrival="321.00" arrivalLane="-256961141#1_1" arrivalPos="204.72" arrivalSpeed="13.22" duration="183.00" routeLength="1204.36" waitingTime="87.00" waitingCount="2" stopTime="0.00" timeLoss="104.50" rerouteNo="0" devices="tripinfo_65" vType="DEFAULT_VEHTYPE" speedFactor="1.04" vaporized=""/>
    <tripinfo id="117" depart="248.00" departLane="-231177697#2_0" departPos="5.10" departSpeed="0.00" departDelay="0.24" arrival="327.00" arrivalLane="153964138#0_0" arrivalPos="337.99" arrivalSpeed="13.76" duration="79.00" routeLength="417.38" waitingTime="37.00" waitingCount="1" stopTime="0.00" timeLoss="47.39" rerouteNo="0" devices="tripinfo_117" vType="DEFAULT_VEHTYPE" speedFactor="0.85" vaporized=""/>
    <tripinfo id="56" depart="119.00" departLane="256961141#0_0" departPos="5.10" departSpeed="0.00" departDelay="0.41" arrival="333.00" arrivalLane="153964138#0_0" arrivalPos="337.99" arrivalSpeed="12.75" duration="214.00" routeLength="1439.25" waitingTime="73.00" waitingCount="4" stopTime="0.00" timeLoss="97.92" rerouteNo="0" devices="tripinfo_56" vType="DEFAULT_VEHTYPE" speedFactor="0.83" vaporized=""/>
    <tripinfo id="69" depart="147.00" departLane="666135205#0_0" departPos="5.10" departSpeed="0.00" departDelay="0.88" arrival="333.00" arrivalLane="153964138#0_1" arrivalPos="337.99" arrivalSpeed="14.26" duration="186.00" routeLength="924.87" waitingTime="100.00" waitingCount="2" stopTime="0.00" timeLoss="116.83" rerouteNo="0" devices="tripinfo_69" vType="DEFAULT_VEHTYPE" speedFactor="0.92" vaporized=""/>