<?xml version="1.0" encoding="UTF-8"?>

<!-- generated on 2024-09-03 02:37:50 by Eclipse SUMO sumo Version 1.20.0
<configuration xmlns:xsi="http://www.w3.org/2001/XMLSchema-instance" xsi:noNamespaceSchemaLocation="http://sumo.dlr.de/xsd/sumoConfiguration.xsd">

    <input>
        <net-file value="c:\self\School\Master\Disertation\code\RESCO\resco_benchmark\environments/unirii/osm.net.xml.gz"/>
        <route-files value="c:\self\School\Master\Disertation\code\RESCO\resco_benchmark\environments/unirii/osm.passenger.trips.xml"/>
        <additional-files value="c:\self\School\Master\Disertation\code\RESCO\resco_benchmark\environments/unirii/osm.poly.xml.gz"/>
    </input>

    <output>
        <tripinfo-output value="C:\self\School\Master\Disertation\code\RESCO\results\IA2C-tr0-unirii-0-drq_norm-wait_norm\tripinfo_14.xml"/>
        <tripinfo-output.write-unfinished value="true"/>
    </output>

    <processing>
        <ignore-route-errors value="true"/>
        <time-to-teleport value="-1"/>
    </processing>

    <routing>
        <device.rerouting.adaptation-steps value="18"/>
        <device.rerouting.adaptation-interval value="10"/>
    </routing>

    <report>
        <verbose value="true"/>
        <no-warnings value="True"/>
        <duration-log.statistics value="true"/>
        <no-step-log value="True"/>
    </report>

    <traci_server>
        <remote-port value="51982"/>
    </traci_server>

    <random_number>
        <random value="true"/>
    </random_number>

    <gui_only>
        <gui-settings-file value="c:\self\School\Master\Disertation\code\RESCO\resco_benchmark\environments/unirii/osm.view.xml"/>
    </gui_only>

</configuration>
-->

<tripinfos xmlns:xsi="http://www.w3.org/2001/XMLSchema-instance" xsi:noNamespaceSchemaLocation="http://sumo.dlr.de/xsd/tripinfo_file.xsd">
    <tripinfo id="1" depart="3.00" departLane="-231177697#2_0" departPos="5.10" departSpeed="0.00" departDelay="0.88" arrival="63.00" arrivalLane="210831345#1_1" arrivalPos="264.29" arrivalSpeed="12.60" duration="60.00" routeLength="696.92" waitingTime="0.00" waitingCount="0" stopTime="0.00" timeLoss="6.84" rerouteNo="0" devices="tripinfo_1" vType="DEFAULT_VEHTYPE" speedFactor="0.96" vaporized=""/>
    <tripinfo id="10" depart="23.00" departLane="978867529_0" departPos="5.10" departSpeed="0.00" departDelay="1.82" arrival="63.00" arrivalLane="231177697#0_1" arrivalPos="74.44" arrivalSpeed="14.44" duration="40.00" routeLength="437.06" waitingTime="5.00" waitingCount="1" stopTime="0.00" timeLoss="13.45" rerouteNo="0" devices="tripinfo_10" vType="DEFAULT_VEHTYPE" speedFactor="1.09" vaporized=""/>
    <tripinfo id="15" depart="33.00" departLane="978867529_0" departPos="5.10" departSpeed="0.00" departDelay="1.24" arrival="71.00" arrivalLane="231177697#0_1" arrivalPos="74.44" arrivalSpeed="11.48" duration="38.00" routeLength="437.06" waitingTime="0.00" waitingCount="0" stopTime="0.00" timeLoss="5.62" rerouteNo="0" devices="tripinfo_15" vType="DEFAULT_VEHTYPE" speedFactor="0.89" vaporized=""/>
    <tripinfo id="4" depart="9.00" departLane="-661251539_0" departPos="5.10" departSpeed="0.00" departDelay="0.53" arrival="79.00" arrivalLane="-256961141#1_1" arrivalPos="204.72" arrivalSpeed="12.91" duration="70.00" routeLength="872.91" waitingTime="0.00" waitingCount="0" stopTime="0.00" timeLoss="9.67" rerouteNo="0" devices="tripinfo_4" vType="DEFAULT_VEHTYPE" speedFactor="1.01" vaporized=""/>
    <tripinfo id="16" depart="34.00" departLane="256961141#0_0" departPos="5.10" departSpeed="0.00" departDelay="0.12" arrival="121.00" arrivalLane="450554042#0_0" arrivalPos="622.66" arrivalSpeed="16.54" duration="87.00" routeLength="853.74" waitingTime="23.00" waitingCount="1" stopTime="0.00" timeLoss="34.14" rerouteNo="0" devices="tripinfo_16" vType="DEFAULT_VEHTYPE" speedFactor="1.04" vaporized=""/>
    <tripinfo id="50" depart="106.00" departLane="-218680176#1_0" departPos="5.10" departSpeed="0.00" departDelay="0.12" arrival="125.00" arrivalLane="231177697#0_0" arrivalPos="74.44" arrivalSpeed="12.79" duration="19.00" routeLength="205.97" waitingTime="0.00" waitingCount="0" stopTime="0.00" timeLoss="3.41" rerouteNo="0" devices="tripinfo_50" vType="DEFAULT_VEHTYPE" speedFactor="1.00" vaporized=""/>
    <tripinfo id="23" depart="50.00" departLane="-218680176#1_0" departPos="5.10" departSpeed="0.00" departDelay="1.29" arrival="129.00" arrivalLane="210831345#1_0" arrivalPos="264.29" arrivalSpeed="14.57" duration="79.00" routeLength="699.94" waitingTime="10.00" waitingCount="1" stopTime="0.00" timeLoss="32.43" rerouteNo="0" devices="tripinfo_23" vType="DEFAULT_VEHTYPE" speedFactor="1.11" vaporized=""/>
    <tripinfo id="22" depart="47.00" departLane="-218680176#1_0" departPos="5.10" departSpeed="0.00" departDelay="0.41" arrival="130.00" arrivalLane="210831345#1_0" arrivalPos="264.29" arrivalSpeed="11.56" duration="83.00" routeLength="699.94" waitingTime="12.00" waitingCount="1" stopTime="0.00" timeLoss="23.76" rerouteNo="0" devices="tripinfo_22" vType="DEFAULT_VEHTYPE" speedFactor="0.87" vaporized=""/>
    <tripinfo id="35" depart="75.00" departLane="-226276377#1_0" departPos="5.10" departSpeed="0.00" departDelay="0.88" arrival="141.00" arrivalLane="450554042#0_0" arrivalPos="622.66" arrivalSpeed="19.58" duration="66.00" routeLength="763.53" waitingTime="11.00" waitingCount="1" stopTime="0.00" timeLoss="24.65" rerouteNo="0" devices="tripinfo_35" vType="DEFAULT_VEHTYPE" speedFactor="1.18" vaporized=""/>
    <tripinfo id="30" depart="64.00" departLane="E8_0" departPos="5.10" departSpeed="0.00" departDelay="0.47" arrival="144.00" arrivalLane="226276377#0_1" arrivalPos="135.52" arrivalSpeed="12.16" duration="80.00" routeLength="784.51" waitingTime="8.00" waitingCount="1" stopTime="0.00" timeLoss="19.54" rerouteNo="0" devices="tripinfo_30" vType="DEFAULT_VEHTYPE" speedFactor="0.95" vaporized=""/>
    <tripinfo id="0" depart="0.00" departLane="65746828#0_0" departPos="5.10" departSpeed="0.00" departDelay="0.00" arrival="147.00" arrivalLane="-256961141#1_1" arrivalPos="204.72" arrivalSpeed="14.55" duration="147.00" routeLength="931.50" waitingTime="72.00" waitingCount="2" stopTime="0.00" timeLoss="90.63" rerouteNo="0" devices="tripinfo_0" vType="DEFAULT_VEHTYPE" speedFactor="1.12" vaporized=""/>
    <tripinfo id="40" depart="85.00" departLane="65746828#0_0" departPos="5.10" departSpeed="0.00" departDelay="0.29" arrival="147.00" arrivalLane="210831345#1_0" arrivalPos="264.29" arrivalSpeed="15.44" duration="62.00" routeLength="446.75" waitingTime="22.00" waitingCount="1" stopTime="0.00" timeLoss="32.38" rerouteNo="0" devices="tripinfo_40" vType="DEFAULT_VEHTYPE" speedFactor="1.12" vaporized=""/>
    <tripinfo id="20" depart="43.00" departLane="666135205#0_0" departPos="5.10" departSpeed="0.00" departDelay="0.65" arrival="151.00" arrivalLane="-256961141#1_1" arrivalPos="204.72" arrivalSpeed="13.55" duration="108.00" routeLength="1068.72" waitingTime="15.00" waitingCount="2" stopTime="0.00" timeLoss="34.65" rerouteNo="0" devices="tripinfo_20" vType="DEFAULT_VEHTYPE" speedFactor="0.98" vaporized=""/>
    <tripinfo id="6" depart="13.00" departLane="-218680176#1_0" departPos="5.10" departSpeed="0.00" departDelay="0.29" arrival="153.00" arrivalLane="153964138#0_2" arrivalPos="337.99" arrivalSpeed="17.28" duration="140.00" routeLength="462.27" waitingTime="100.00" waitingCount="1" stopTime="0.00" timeLoss="112.13" rerouteNo="0" devices="tripinfo_6" vType="DEFAULT_VEHTYPE" speedFactor="1.08" vaporized=""/>
    <tripinfo id="2" depart="5.00" departLane="666135205#0_0" departPos="5.10" departSpeed="0.00" departDelay="0.76" arrival="162.00" arrivalLane="231177697#0_0" arrivalPos="74.44" arrivalSpeed="12.81" duration="157.00" routeLength="649.17" waitingTime="91.00" waitingCount="2" stopTime="0.00" timeLoss="108.42" rerouteNo="0" devices="tripinfo_2" vType="DEFAULT_VEHTYPE" speedFactor="1.00" vaporized=""/>
    <tripinfo id="31" depart="66.00" departLane="65746828#0_0" departPos="5.10" departSpeed="0.00" departDelay="0.35" arrival="164.00" arrivalLane="231177697#0_0" arrivalPos="74.44" arrivalSpeed="14.46" duration="98.00" routeLength="558.79" waitingTime="46.00" waitingCount="1" stopTime="0.00" timeLoss="59.96" rerouteNo="0" devices="tripinfo_31" vType="DEFAULT_VEHTYPE" speedFactor="1.10" vaporized=""/>
    <tripinfo id="27" depart="58.00" departLane="65746828#0_0" departPos="5.10" departSpeed="0.00" departDelay="0.82" arrival="165.00" arrivalLane="226276377#0_0" arrivalPos="135.52" arrivalSpeed="15.63" duration="107.00" routeLength="841.69" waitingTime="43.00" waitingCount="1" stopTime="0.00" timeLoss="57.93" rerouteNo="0" devices="tripinfo_27" vType="DEFAULT_VEHTYPE" speedFactor="1.14" vaporized=""/>
    <tripinfo id="61" depart="130.00" departLane="978867529_0" departPos="5.10" departSpeed="0.00" departDelay="0.82" arrival="169.00" arrivalLane="218680176#0_0" arrivalPos="98.94" arrivalSpeed="12.69" duration="39.00" routeLength="442.15" waitingTime="0.00" waitingCount="0" stopTime="0.00" timeLoss="8.72" rerouteNo="0" devices="tripinfo_61" vType="DEFAULT_VEHTYPE" speedFactor="0.97" vaporized=""/>
    <tripinfo id="47" depart="100.00" departLane="-218680176#1_0" departPos="5.10" departSpeed="0.00" departDelay="0.47" arrival="170.00" arrivalLane="210831347#0_0" arrivalPos="149.88" arrivalSpeed="13.37" duration="70.00" routeLength="560.58" waitingTime="16.00" waitingCount="1" stopTime="0.00" timeLoss="29.58" rerouteNo="0" devices="tripinfo_47" vType="DEFAULT_VEHTYPE" speedFactor="1.04" vaporized=""/>
    <tripinfo id="3" depart="7.00" departLane="E8_0" departPos="5.10" departSpeed="0.00" departDelay="0.65" arrival="171.00" arrivalLane="-256961141#1_0" arrivalPos="204.72" arrivalSpeed="13.74" duration="164.00" routeLength="832.89" waitingTime="94.00" waitingCount="1" stopTime="0.00" timeLoss="106.08" rerouteNo="0" devices="tripinfo_3" vType="DEFAULT_VEHTYPE" speedFactor="1.05" vaporized=""/>
    <tripinfo id="45" depart="96.00" departLane="-218680176#1_0" departPos="5.10" departSpeed="0.00" departDelay="0.71" arrival="200.00" arrivalLane="226276377#0_0" arrivalPos="135.52" arrivalSpeed="15.04" duration="104.00" routeLength="1117.57" waitingTime="20.00" waitingCount="1" stopTime="0.00" timeLoss="38.75" rerouteNo="0" devices="tripinfo_45" vType="DEFAULT_VEHTYPE" speedFactor="1.16" vaporized=""/>
    <tripinfo id="52" depart="111.00" departLane="-231177697#2_0" departPos="5.10" departSpeed="0.00" departDelay="0.88" arrival="211.00" arrivalLane="226276377#0_0" arrivalPos="135.52" arrivalSpeed="14.16" duration="100.00" routeLength="1114.55" waitingTime="14.00" waitingCount="1" stopTime="0.00" timeLoss="29.06" rerouteNo="0" devices="tripinfo_52" vType="DEFAULT_VEHTYPE" speedFactor="1.07" vaporized=""/>
    <tripinfo id="49" depart="105.00" departLane="E8_0" departPos="5.10" departSpeed="0.00" departDelay="1.24" arrival="212.00" arrivalLane="39907424_0" arrivalPos="316.44" arrivalSpeed="12.24" duration="107.00" routeLength="1303.68" waitingTime="0.00" waitingCount="0" stopTime="0.00" timeLoss="12.18" rerouteNo="0" devices="tripinfo_49" vType="DEFAULT_VEHTYPE" speedFactor="0.96" vaporized=""/>
    <tripinfo id="32" depart="68.00" departLane="978867529_0" departPos="5.10" departSpeed="0.00" departDelay="0.24" arrival="214.00" arrivalLane="231177697#0_1" arrivalPos="74.44" arrivalSpeed="12.77" duration="146.00" routeLength="437.06" waitingTime="104.00" waitingCount="1" stopTime="0.00" timeLoss="116.30" rerouteNo="0" devices="tripinfo_32" vType="DEFAULT_VEHTYPE" speedFactor="0.98" vaporized=""/>
    <tripinfo id="7" depart="15.00" departLane="65746828#0_0" departPos="5.10" departSpeed="0.00" departDelay="0.18" arrival="216.00" arrivalLane="218680176#0_1" arrivalPos="98.94" arrivalSpeed="13.42" duration="201.00" routeLength="602.71" waitingTime="137.00" waitingCount="2" stopTime="0.00" timeLoss="154.63" rerouteNo="0" devices="tripinfo_7" vType="DEFAULT_VEHTYPE" speedFactor="0.97" vaporized=""/>
    <tripinfo id="5" depart="11.00" departLane="-226276377#1_0" departPos="5.10" departSpeed="0.00" departDelay="0.41" arrival="217.00" arrivalLane="218680176#0_1" arrivalPos="98.94" arrivalSpeed="14.52" duration="206.00" routeLength="1158.55" waitingTime="104.00" waitingCount="3" stopTime="0.00" timeLoss="132.94" rerouteNo="0" devices="tripinfo_5" vType="DEFAULT_VEHTYPE" speedFactor="1.10" vaporized=""/>
    <tripinfo id="17" depart="36.00" departLane="-661251539_0" departPos="5.10" departSpeed="0.00" departDelay="0.00" arrival="219.00" arrivalLane="218680176#0_1" arrivalPos="98.94" arrivalSpeed="14.27" duration="183.00" routeLength="1001.21" waitingTime="87.00" waitingCount="3" stopTime="0.00" timeLoss="112.48" rerouteNo="0" devices="tripinfo_17" vType="DEFAULT_VEHTYPE" speedFactor="1.04" vaporized=""/>
    <tripinfo id="51" depart="108.00" departLane="666135205#0_0" departPos="5.10" departSpeed="0.00" departDelay="0.00" arrival="221.00" arrivalLane="218680176#0_1" arrivalPos="98.94" arrivalSpeed="14.83" duration="113.00" routeLength="693.09" waitingTime="49.00" waitingCount="2" stopTime="0.00" timeLoss="67.28" rerouteNo="0" devices="tripinfo_51" vType="DEFAULT_VEHTYPE" speedFactor="1.13" vaporized=""/>
    <tripinfo id="44" depart="94.00" departLane="-218680176#1_0" departPos="5.10" departSpeed="0.00" departDelay="0.82" arrival="223.00" arrivalLane="-256961141#1_1" arrivalPos="204.72" arrivalSpeed="13.54" duration="129.00" routeLength="1207.38" waitingTime="31.00" waitingCount="2" stopTime="0.00" timeLoss="48.85" rerouteNo="0" devices="tripinfo_44" vType="DEFAULT_VEHTYPE" speedFactor="1.02" vaporized=""/>
    <tripinfo id="60" depart="128.00" departLane="666135205#0_0" departPos="5.10" departSpeed="0.00" departDelay="0.94" arrival="223.00" arrivalLane="218680176#0_1" arrivalPos="98.94" arrivalSpeed="13.96" duration="95.00" routeLength="693.09" waitingTime="26.00" waitingCount="1" stopTime="0.00" timeLoss="46.34" rerouteNo="0" devices="tripinfo_60" vType="DEFAULT_VEHTYPE" speedFactor="1.07" vaporized=""/>
    <tripinfo id="13" depart="28.00" departLane="-218680176#1_0" departPos="5.10" departSpeed="0.00" departDelay="0.47" arrival="227.00" arrivalLane="-256961141#1_1" arrivalPos="204.72" arrivalSpeed="12.78" duration="199.00" routeLength="1207.38" waitingTime="88.00" waitingCount="3" stopTime="0.00" timeLoss="112.30" rerouteNo="0" devices="tripinfo_13" vType="DEFAULT_VEHTYPE" speedFactor="0.95" vaporized=""/>
    <tripinfo id="33" depart="70.00" departLane="-231177697#2_0" departPos="5.10" departSpeed="0.00" departDelay="0.12" arrival="228.00" arrivalLane="-256961141#1_1" arrivalPos="204.72" arrivalSpeed="13.39" duration="158.00" routeLength="1204.36" waitingTime="53.00" waitingCount="2" stopTime="0.00" timeLoss="80.59" rerouteNo="0" devices="tripinfo_33" vType="DEFAULT_VEHTYPE" speedFactor="1.05" vaporized=""/>
    <tripinfo id="57" depart="121.00" departLane="E8_0" departPos="5.10" departSpeed="0.00" departDelay="0.29" arrival="230.00" arrivalLane="39907424_0" arrivalPos="316.44" arrivalSpeed="11.99" duration="109.00" routeLength="1303.68" waitingTime="0.00" waitingCount="0" stopTime="0.00" timeLoss="10.26" rerouteNo="0" devices="tripinfo_57" vType="DEFAULT_VEHTYPE" speedFactor="0.92" vaporized=""/>
    <tripinfo id="75" depart="159.00" departLane="E8_0" departPos="5.10" departSpeed="0.00" departDelay="0.18" arrival="232.00" arrivalLane="226276377#0_1" arrivalPos="135.52" arrivalSpeed="11.23" duration="73.00" routeLength="784.51" waitingTime="0.00" waitingCount="0" stopTime="0.00" timeLoss="6.45" rerouteNo="0" devices="tripinfo_75" vType="DEFAULT_VEHTYPE" speedFactor="0.86" vaporized=""/>
    <tripinfo id="65" depart="138.00" departLane="-231177697#2_0" departPos="5.10" departSpeed="0.00" departDelay="0.35" arrival="234.00" arrivalLane="-256961141#1_1" arrivalPos="204.72" arrivalSpeed="11.95" duration="96.00" routeLength="1204.36" waitingTime="0.00" waitingCount="0" stopTime="0.00" timeLoss="7.59" rerouteNo="0" devices="tripinfo_65" vType="DEFAULT_VEHTYPE" speedFactor="0.93" vaporized=""/>
    <tripinfo id="26" depart="56.00" departLane="-231177697#2_0" departPos="5.10" departSpeed="0.00" departDelay="0.94" arrival="237.00" arrivalLane="450554042#0_0" arrivalPos="622.66" arrivalSpeed="15.61" duration="181.00" routeLength="1613.58" waitingTime="62.00" waitingCount="1" stopTime="0.00" timeLoss="77.89" rerouteNo="0" devices="tripinfo_26" vType="DEFAULT_VEHTYPE" speedFactor="1.00" vaporized=""/>
    <tripinfo id="85" depart="180.00" departLane="E8_0" departPos="5.10" departSpeed="0.00" departDelay="0.00" arrival="241.00" arrivalLane="226276377#0_1" arrivalPos="135.52" arrivalSpeed="13.77" duration="61.00" routeLength="784.51" waitingTime="0.00" waitingCount="0" stopTime="0.00" timeLoss="7.88" rerouteNo="0" devices="tripinfo_85" vType="DEFAULT_VEHTYPE" speedFactor="1.08" vaporized=""/>
    <tripinfo id="46" depart="98.00" departLane="978867529_0" departPos="5.10" departSpeed="0.00" departDelay="0.59" arrival="243.00" arrivalLane="210831347#0_0" arrivalPos="149.88" arrivalSpeed="11.97" duration="145.00" routeLength="812.56" waitingTime="68.00" waitingCount="2" stopTime="0.00" timeLoss="85.77" rerouteNo="0" devices="tripinfo_46" vType="DEFAULT_VEHTYPE" speedFactor="0.94" vaporized=""/>
    <tripinfo id="79" depart="168.00" departLane="-231177697#2_0" departPos="5.10" departSpeed="0.00" departDelay="0.71" arrival="249.00" arrivalLane="153964138#0_0" arrivalPos="337.99" arrivalSpeed="15.39" duration="81.00" routeLength="417.38" waitingTime="43.00" waitingCount="1" stopTime="0.00" timeLoss="52.97" rerouteNo="0" devices="tripinfo_79" vType="DEFAULT_VEHTYPE" speedFactor="0.96" vaporized=""/>
    <tripinfo id="58" depart="123.00" departLane="-231177697#2_0" departPos="5.10" departSpeed="0.00" departDelay="0.18" arrival="267.00" arrivalLane="226276377#0_0" arrivalPos="135.52" arrivalSpeed="13.16" duration="144.00" routeLength="1114.55" waitingTime="50.00" waitingCount="2" stopTime="0.00" timeLoss="70.37" rerouteNo="0" devices="tripinfo_58" vType="DEFAULT_VEHTYPE" speedFactor="1.03" vaporized=""/>
    <tripinfo id="78" depart="166.00" departLane="-661251539_0" departPos="5.10" departSpeed="0.00" departDelay="0.82" arrival="268.00" arrivalLane="226276377#0_0" arrivalPos="135.52" arrivalSpeed="14.81" duration="102.00" routeLength="783.10" waitingTime="35.00" waitingCount="2" stopTime="0.00" timeLoss="53.61" rerouteNo="0" devices="tripinfo_78" vType="DEFAULT_VEHTYPE" speedFactor="1.12" vaporized=""/>
    <tripinfo id="28" depart="60.00" departLane="-226276377#1_0" departPos="5.10" departSpeed="0.00" departDelay="0.71" arrival="269.00" arrivalLane="231177697#0_0" arrivalPos="74.44" arrivalSpeed="10.41" duration="209.00" routeLength="1114.63" waitingTime="83.00" waitingCount="4" stopTime="0.00" timeLoss="113.23" rerouteNo="0" devices="tripinfo_28" vType="DEFAULT_VEHTYPE" speedFactor="0.81" vaporized=""/>
    <tripinfo id="91" depart="193.00" departLane="E8_0" departPos="5.10" departSpeed="0.00" departDelay="0.29" arrival="270.00" arrivalLane="-256961141#1_0" arrivalPos="204.72" arrivalSpeed="15.25" duration="77.00" routeLength="832.89" waitingTime="11.00" waitingCount="1" stopTime="0.00" timeLoss="22.63" rerouteNo="0" devices="tripinfo_91" vType="DEFAULT_VEHTYPE" speedFactor="1.12" vaporized=""/>
    <tripinfo id="90" depart="191.00" departLane="666135205#0_0" departPos="5.10" departSpeed="0.00" departDelay="0.41" arrival="271.00" arrivalLane="231177697#0_0" arrivalPos="74.44" arrivalSpeed="13.07" duration="80.00" routeLength="649.17" waitingTime="14.00" waitingCount="1" stopTime="0.00" timeLoss="29.33" rerouteNo="0" devices="tripinfo_90" vType="DEFAULT_VEHTYPE" speedFactor="0.96" vaporized=""/>
    <tripinfo id="11" depart="24.00" departLane="-661251539_0" departPos="5.10" departSpeed="0.00" departDelay="0.71" arrival="277.00" arrivalLane="153964138#0_0" arrivalPos="337.99" arrivalSpeed="16.95" duration="253.00" routeLength="1239.04" waitingTime="152.00" waitingCount="2" stopTime="0.00" timeLoss="173.85" rerouteNo="0" devices="tripinfo_11" vType="DEFAULT_VEHTYPE" speedFactor="1.08" vaporized=""/>
    <tripinfo id="64" depart="136.00" departLane="978867529_0" departPos="5.10" departSpeed="0.00" departDelay="0.47" arrival="277.00" arrivalLane="39907424_0" arrivalPos="316.44" arrivalSpeed="11.98" duration="141.00" routeLength="1216.15" waitingTime="40.00" waitingCount="1" stopTime="0.00" timeLoss="54.91" rerouteNo="0" devices="tripinfo_64" vType="DEFAULT_VEHTYPE" speedFactor="0.95" vaporized=""/>
    <tripinfo id="71" depart="151.00" departLane="-231177697#2_0" departPos="5.10" departSpeed="0.00" departDelay="0.65" arrival="279.00" arrivalLane="39907424_0" arrivalPos="316.44" arrivalSpeed="12.71" duration="128.00" routeLength="961.15" waitingTime="38.00" waitingCount="2" stopTime="0.00" timeLoss="58.87" rerouteNo="0" devices="tripinfo_71" vType="DEFAULT_VEHTYPE" speedFactor="0.99" vaporized=""/>
    <tripinfo id="69" depart="147.00" departLane="666135205#0_0" departPos="5.10" departSpeed="0.00" departDelay="0.88" arrival="282.00" arrivalLane="153964138#0_1" arrivalPos="337.99" arrivalSpeed="15.05" duration="135.00" routeLength="924.87" waitingTime="47.00" waitingCount="2" stopTime="0.00" timeLoss="65.37" rerouteNo="0" devices="tripinfo_69" vType="DEFAULT_VEHTYPE" speedFactor="0.91" vaporized=""/>
    <tripinfo id="19" depart="42.00" departLane="978867529_0" departPos="5.10" departSpeed="0.00" departDelay="1.76" arrival="284.00" arrivalLane="226276377#0_0" arrivalPos="135.52" arrivalSpeed="12.49" duration="242.00" routeLength="1369.55" waitingTime="124.00" waitingCount="2" stopTime="0.00" timeLoss="147.55" rerouteNo="0" devices="tripinfo_19" vType="DEFAULT_VEHTYPE" speedFactor="0.96" vaporized=""/>
    <tripinfo id="56" depart="119.00" departLane="256961141#0_0" departPos="5.10" departSpeed="0.00" departDelay="0.41" arrival="284.00" arrivalLane="153964138#0_1" arrivalPos="337.99" arrivalSpeed="16.31" duration="165.00" routeLength="1439.25" waitingTime="45.00" waitingCount="2" stopTime="0.00" timeLoss="68.55" rerouteNo="0" devices="tripinfo_56" vType="DEFAULT_VEHTYPE" speedFactor="1.00" vaporized=""/>
    <tripinfo id="14" depart="30.00" departLane="978867529_0" departPos="5.10" departSpeed="0.00" departDelay="0.35" arrival="285.00" arrivalLane="226276377#0_0" arrivalPos="135.52" arrivalSpeed="13.74" duration="255.00" routeLength="1369.55" waitingTime="141.00" waitingCount="2" stopTime="0.00" timeLoss="165.28" rerouteNo="0" devices="tripinfo_14" vType="DEFAULT_VEHTYPE" speedFactor="1.00" vaporized=""/>
    <tripinfo id="25" depart="53.00" departLane="-661251539_0" departPos="5.10" departSpeed="0.00" departDelay="0.06" arrival="285.00" arrivalLane="153964138#0_1" arrivalPos="337.99" arrivalSpeed="15.59" duration="232.00" routeLength="1239.04" waitingTime="117.00" waitingCount="2" stopTime="0.00" timeLoss="141.26" rerouteNo="0" devices="tripinfo_25" vType="DEFAULT_VEHTYPE" speedFactor="0.94" vaporized=""/>
    <tripinfo id="42" depart="89.00" departLane="-661251539_0" departPos="5.10" departSpeed="0.00" departDelay="0.06" arrival="285.00" arrivalLane="153964138#0_2" arrivalPos="337.99" arrivalSpeed="12.84" duration="196.00" routeLength="1239.04" waitingTime="66.00" waitingCount="2" stopTime="0.00" timeLoss="86.12" rerouteNo="0" devices="tripinfo_42" vType="DEFAULT_VEHTYPE" speedFactor="0.78" vaporized=""/>
    <tripinfo id="59" depart="125.00" departLane="65746828#0_0" departPos="5.10" departSpeed="0.00" departDelay="0.06" arrival="285.00" arrivalLane="153964138#0_0" arrivalPos="337.99" arrivalSpeed="12.05" duration="160.00" routeLength="834.49" waitingTime="75.00" waitingCount="1" stopTime="0.00" timeLoss="85.67" rerouteNo="0" devices="tripinfo_59" vType="DEFAULT_VEHTYPE" speedFactor="0.76" vaporized=""/>
    <tripinfo id="72" depart="153.00" departLane="-661251539_0" departPos="5.10" departSpeed="0.00" departDelay="0.53" arrival="286.00" arrivalLane="153964138#0_2" arrivalPos="337.99" arrivalSpeed="14.09" duration="133.00" routeLength="1239.04" waitingTime="26.00" waitingCount="2" stopTime="0.00" timeLoss="54.60" rerouteNo="0" devices="tripinfo_72" vType="DEFAULT_VEHTYPE" speedFactor="1.09" vaporized=""/>
    <tripinfo id="68" depart="144.00" departLane="-218680176#1_0" departPos="5.10" departSpeed="0.00" departDelay="0.00" arrival="289.00" arrivalLane="231177697#0_0" arrivalPos="74.44" arrivalSpeed="13.91" duration="145.00" routeLength="205.97" waitingTime="114.00" waitingCount="3" stopTime="0.00" timeLoss="130.46" rerouteNo="0" devices="tripinfo_68" vType="DEFAULT_VEHTYPE" speedFactor="1.06" vaporized=""/>
    <tripinfo id="41" depart="88.00" departLane="65746828#0_0" departPos="5.10" departSpeed="0.00" departDelay="1.18" arrival="296.00" arrivalLane="450554042#0_0" arrivalPos="622.66" arrivalSpeed="15.88" duration="208.00" routeLength="1340.72" waitingTime="102.00" waitingCount="3" stopTime="0.00" timeLoss="125.76" rerouteNo="0" devices="tripinfo_41" vType="DEFAULT_VEHTYPE" speedFactor="1.01" vaporized=""/>
    <tripinfo id="117" depart="248.00" departLane="-231177697#2_0" departPos="5.10" departSpeed="0.00" departDelay="0.24" arrival="304.00" arrivalLane="153964138#0_0" arrivalPos="337.99" arrivalSpeed="14.40" duration="56.00" routeLength="417.38" waitingTime="19.00" waitingCount="1" stopTime="0.00" timeLoss="27.42" rerouteNo="0" devices="tripinfo_117" vType="DEFAULT_VEHTYPE" speedFactor="0.93" vaporized=""/>
    <tripinfo id="108" depart="229.00" departLane="65746828#0_0" departPos="5.10" departSpeed="0.00" departDelay="0.29" arrival="313.00" arrivalLane="231177697#0_0" arrivalPos="74.44" arrivalSpeed="11.99" duration="84.00" routeLength="558.79" waitingTime="23.00" waitingCount="2" stopTime="0.00" timeLoss="39.04" rerouteNo="0" devices="tripinfo_108" vType="DEFAULT_VEHTYPE" speedFactor="0.93" vaporized=""/>
    <tripinfo id="116" depart="246.00" departLane="65746828#0_0" departPos="5.10" departSpeed="0.00" departDelay="0.35" arrival="315.00" arrivalLane="231177697#0_0" arrivalPos="74.44" arrivalSpeed="13.33" duration="69.00" routeLength="558.79" waitingTime="16.00" waitingCount="1" stopTime="0.00" timeLoss="28.13" rerouteNo="0" devices="tripinfo_116" vType="DEFAULT_VEHTYPE" speedFactor="1.02" vaporized=""/>
    <tripinfo id="81" depart="172.00" departLane="-231177697#2_0" departPos="5.10" departSpeed="0.00" departDelay="0.47" arrival="316.00" arrivalLane="450554042#0_0" arrivalPos="622.66" arrivalSpeed="14.95" duration="144.00" routeLength="1613.58" waitingTime="20.00" waitingCount="1" stopTime="0.00" timeLoss="36.74" rerouteNo="0" devices="tripinfo_81" vType="DEFAULT_VEHTYPE" speedFactor="0.96" vaporized=""/>
    <tripinfo id="29" depart="63.00" departLane="-226276377#1_0" departPos="5.10" departSpeed="0.00" departDelay="1.59" arrival="320.00" arrivalLane="210831347#0_1" arrivalPos="149.88" arrivalSpeed="13.71" duration="257.00" routeLength="888.52" waitingTime="174.00" waitingCount="2" stopTime="0.00" timeLoss="197.07" rerouteNo="0" devices="tripinfo_29" vType="DEFAULT_VEHTYPE" speedFactor="1.02" vaporized=""/>
    <tripinfo id="99" depart="210.00" departLane="E8_0" departPos="5.10" departSpeed="0.00" departDelay="0.35" arrival="321.00" arrivalLane="39907424_0" arrivalPos="316.44" arrivalSpeed="12.08" duration="111.00" routeLength="1303.68" waitingTime="0.00" waitingCount="0" stopTime="0.00" timeLoss="11.54" rerouteNo="0" devices="tripinfo_99" vType="DEFAULT_VEHTYPE" speedFactor="0.92" vaporized=""/>
    <tripinfo id="12" depart="26.00" departLane="E8_0" departPos="5.10" departSpeed="0.00" departDelay="0.59" arrival="322.00" arrivalLane="210831347#0_1" arrivalPos="149.88" arrivalSpeed="14.04" duration="296.00" routeLength="1367.17" waitingTime="180.00" waitingCount="2" stopTime="0.00" timeLoss="201.52" rerouteNo="0" devices="tripinfo_12" vType="DEFAULT_VEHTYPE" speedFactor="1.01" vaporized=""/>
    <tripinfo id="54" depart="115.00" departLane="256961141#0_0" departPos="5.10" departSpeed="0.00" departDelay="0.65" arrival="323.00" arrivalLane="450554042#0_0" arrivalPos="622.66" arrivalSpeed="15.97" duration="208.00" routeLength="853.74" waitingTime="140.00" waitingCount="1" stopTime="0.00" timeLoss="152.15" rerouteNo="0" devices="tripinfo_54" vType="DEFAULT_VEHTYPE" speedFactor="0.98" vaporized=""/>
    <tripinfo id="21" depart="45.00" departLane="-231177697#2_0" departPos="5.10" departSpeed="0.00" departDelay="0.53" arrival="326.00" arrivalLane="210831345#1_1" arrivalPos="264.29" arrivalSpeed="14.99" duration="281.00" routeLength="696.92" waitingTime="215.00" waitingCount="2" stopTime="0.00" timeLoss="234.03" rerouteNo="0" devices="tripinfo_21" vType="DEFAULT_VEHTYPE" speedFactor="1.10" vaporized=""/>
    <tripinfo id="92" depart="195.00" departLane="-661251539_0" departPos="5.10" departSpeed="0.00" departDelay="0.18" arrival="327.00" arrivalLane="210831347#0_1" arrivalPos="149.88" arrivalSpeed="9.83" duration="132.00" routeLength="731.18" waitingTime="51.00" waitingCount="1" stopTime="0.00" timeLoss="63.62" rerouteNo="0" devices="tripinfo_92" vType="DEFAULT_VEHTYPE" speedFactor="0.78" vaporized=""/>
    <tripinfo id="34" depart="72.00" departLane="-231177697#2_0" departPos="5.10" departSpeed="0.00" departDelay="0.00" arrival="328.00" arrivalLane="210831345#1_1" arrivalPos="264.29" arrivalSpeed="13.84" duration="256.00" routeLength="696.92" waitingTime="190.00" waitingCount="2" stopTime="0.00" timeLoss="208.08" rerouteNo="0" devices="tripinfo_34" vType="DEFAULT_VEHTYPE" speedFactor="1.07" vaporized=""/>
    <tripinfo id="121" depart="257.00" departLane="256961141#0_0" departPos="5.10" departSpeed="0.00" departDelay="0.76" arrival="328.00" arrivalLane="450554042#0_0" arrivalPos="622.66" arrivalSpeed="14.85" duration="71.00" routeLength="853.74" waitingTime="0.00" waitingCount="0" stopTime="0.00" timeLoss="11.43" rerouteNo="0" devices="tripinfo_121" vType="DEFAULT_VEHTYPE" speedFactor="0.92" vaporized=""/>