<?xml version="1.0" encoding="UTF-8"?>

<!-- generated on 2024-09-03 02:43:58 by Eclipse SUMO sumo Version 1.20.0
<configuration xmlns:xsi="http://www.w3.org/2001/XMLSchema-instance" xsi:noNamespaceSchemaLocation="http://sumo.dlr.de/xsd/sumoConfiguration.xsd">

    <input>
        <net-file value="c:\self\School\Master\Disertation\code\RESCO\resco_benchmark\environments/unirii/osm.net.xml.gz"/>
        <route-files value="c:\self\School\Master\Disertation\code\RESCO\resco_benchmark\environments/unirii/osm.passenger.trips.xml"/>
        <additional-files value="c:\self\School\Master\Disertation\code\RESCO\resco_benchmark\environments/unirii/osm.poly.xml.gz"/>
    </input>

    <output>
        <tripinfo-output value="C:\self\School\Master\Disertation\code\RESCO\results\IA2C-tr0-unirii-0-drq_norm-wait_norm\tripinfo_45.xml"/>
        <tripinfo-output.write-unfinished value="true"/>
    </output>

    <processing>
        <ignore-route-errors value="true"/>
        <time-to-teleport value="-1"/>
    </processing>

    <routing>
        <device.rerouting.adaptation-steps value="18"/>
        <device.rerouting.adaptation-interval value="10"/>
    </routing>

    <report>
        <verbose value="true"/>
        <no-warnings value="True"/>
        <duration-log.statistics value="true"/>
        <no-step-log value="True"/>
    </report>

    <traci_server>
        <remote-port value="52280"/>
    </traci_server>

    <random_number>
        <random value="true"/>
    </random_number>

    <gui_only>
        <gui-settings-file value="c:\self\School\Master\Disertation\code\RESCO\resco_benchmark\environments/unirii/osm.view.xml"/>
    </gui_only>

</configuration>
-->

<tripinfos xmlns:xsi="http://www.w3.org/2001/XMLSchema-instance" xsi:noNamespaceSchemaLocation="http://sumo.dlr.de/xsd/tripinfo_file.xsd">
    <tripinfo id="3" depart="7.00" departLane="E8_0" departPos="5.10" departSpeed="0.00" departDelay="0.65" arrival="71.00" arrivalLane="-256961141#1_0" arrivalPos="204.72" arrivalSpeed="14.51" duration="64.00" routeLength="832.89" waitingTime="0.00" waitingCount="0" stopTime="0.00" timeLoss="7.51" rerouteNo="0" devices="tripinfo_3" vType="DEFAULT_VEHTYPE" speedFactor="1.08" vaporized=""/>
    <tripinfo id="6" depart="13.00" departLane="-218680176#1_0" departPos="5.10" departSpeed="0.00" departDelay="0.29" arrival="84.00" arrivalLane="153964138#0_1" arrivalPos="337.99" arrivalSpeed="13.78" duration="71.00" routeLength="462.27" waitingTime="26.00" waitingCount="1" stopTime="0.00" timeLoss="34.86" rerouteNo="0" devices="tripinfo_6" vType="DEFAULT_VEHTYPE" speedFactor="0.84" vaporized=""/>
    <tripinfo id="2" depart="5.00" departLane="666135205#0_0" departPos="5.10" departSpeed="0.00" departDelay="0.76" arrival="108.00" arrivalLane="231177697#0_0" arrivalPos="74.44" arrivalSpeed="12.94" duration="103.00" routeLength="649.17" waitingTime="43.00" waitingCount="1" stopTime="0.00" timeLoss="54.41" rerouteNo="0" devices="tripinfo_2" vType="DEFAULT_VEHTYPE" speedFactor="1.00" vaporized=""/>
    <tripinfo id="40" depart="85.00" departLane="65746828#0_0" departPos="5.10" departSpeed="0.00" departDelay="0.29" arrival="122.00" arrivalLane="210831345#1_0" arrivalPos="264.29" arrivalSpeed="13.26" duration="37.00" routeLength="446.75" waitingTime="0.00" waitingCount="0" stopTime="0.00" timeLoss="4.61" rerouteNo="0" devices="tripinfo_40" vType="DEFAULT_VEHTYPE" speedFactor="1.01" vaporized=""/>
    <tripinfo id="27" depart="58.00" departLane="65746828#0_0" departPos="5.10" departSpeed="0.00" departDelay="0.82" arrival="124.00" arrivalLane="226276377#0_0" arrivalPos="135.52" arrivalSpeed="12.61" duration="66.00" routeLength="841.69" waitingTime="0.00" waitingCount="0" stopTime="0.00" timeLoss="9.59" rerouteNo="0" devices="tripinfo_27" vType="DEFAULT_VEHTYPE" speedFactor="1.00" vaporized=""/>
    <tripinfo id="16" depart="34.00" departLane="256961141#0_0" departPos="5.10" departSpeed="0.00" departDelay="0.12" arrival="127.00" arrivalLane="450554042#0_0" arrivalPos="622.66" arrivalSpeed="14.49" duration="93.00" routeLength="853.74" waitingTime="21.00" waitingCount="1" stopTime="0.00" timeLoss="31.05" rerouteNo="0" devices="tripinfo_16" vType="DEFAULT_VEHTYPE" speedFactor="0.89" vaporized=""/>
    <tripinfo id="10" depart="23.00" departLane="978867529_0" departPos="5.10" departSpeed="0.00" departDelay="1.82" arrival="139.00" arrivalLane="231177697#0_1" arrivalPos="74.44" arrivalSpeed="12.06" duration="116.00" routeLength="437.06" waitingTime="74.00" waitingCount="1" stopTime="0.00" timeLoss="83.16" rerouteNo="0" devices="tripinfo_10" vType="DEFAULT_VEHTYPE" speedFactor="0.88" vaporized=""/>
    <tripinfo id="15" depart="33.00" departLane="978867529_0" departPos="5.10" departSpeed="0.00" departDelay="1.24" arrival="141.00" arrivalLane="231177697#0_1" arrivalPos="74.44" arrivalSpeed="13.67" duration="108.00" routeLength="437.06" waitingTime="69.00" waitingCount="1" stopTime="0.00" timeLoss="79.65" rerouteNo="0" devices="tripinfo_15" vType="DEFAULT_VEHTYPE" speedFactor="1.04" vaporized=""/>
    <tripinfo id="7" depart="15.00" departLane="65746828#0_0" departPos="5.10" departSpeed="0.00" departDelay="0.18" arrival="142.00" arrivalLane="218680176#0_1" arrivalPos="98.94" arrivalSpeed="10.45" duration="127.00" routeLength="602.71" waitingTime="62.00" waitingCount="1" stopTime="0.00" timeLoss="71.76" rerouteNo="0" devices="tripinfo_7" vType="DEFAULT_VEHTYPE" speedFactor="0.81" vaporized=""/>
    <tripinfo id="17" depart="36.00" departLane="-661251539_0" departPos="5.10" departSpeed="0.00" departDelay="0.00" arrival="143.00" arrivalLane="218680176#0_1" arrivalPos="98.94" arrivalSpeed="12.87" duration="107.00" routeLength="1001.21" waitingTime="16.00" waitingCount="1" stopTime="0.00" timeLoss="34.80" rerouteNo="0" devices="tripinfo_17" vType="DEFAULT_VEHTYPE" speedFactor="1.01" vaporized=""/>
    <tripinfo id="32" depart="68.00" departLane="978867529_0" departPos="5.10" departSpeed="0.00" departDelay="0.24" arrival="144.00" arrivalLane="231177697#0_1" arrivalPos="74.44" arrivalSpeed="11.72" duration="76.00" routeLength="437.06" waitingTime="33.00" waitingCount="1" stopTime="0.00" timeLoss="42.97" rerouteNo="0" devices="tripinfo_32" vType="DEFAULT_VEHTYPE" speedFactor="0.88" vaporized=""/>
    <tripinfo id="5" depart="11.00" departLane="-226276377#1_0" departPos="5.10" departSpeed="0.00" departDelay="0.41" arrival="145.00" arrivalLane="218680176#0_1" arrivalPos="98.94" arrivalSpeed="12.19" duration="134.00" routeLength="1158.55" waitingTime="27.00" waitingCount="2" stopTime="0.00" timeLoss="46.78" rerouteNo="0" devices="tripinfo_5" vType="DEFAULT_VEHTYPE" speedFactor="0.92" vaporized=""/>
    <tripinfo id="46" depart="98.00" departLane="978867529_0" departPos="5.10" departSpeed="0.00" departDelay="0.59" arrival="164.00" arrivalLane="210831347#0_0" arrivalPos="149.88" arrivalSpeed="13.16" duration="66.00" routeLength="812.56" waitingTime="0.00" waitingCount="0" stopTime="0.00" timeLoss="7.44" rerouteNo="0" devices="tripinfo_46" vType="DEFAULT_VEHTYPE" speedFactor="0.96" vaporized=""/>
    <tripinfo id="30" depart="64.00" departLane="E8_0" departPos="5.10" departSpeed="0.00" departDelay="0.47" arrival="168.00" arrivalLane="226276377#0_1" arrivalPos="135.52" arrivalSpeed="13.85" duration="104.00" routeLength="784.51" waitingTime="35.00" waitingCount="1" stopTime="0.00" timeLoss="47.07" rerouteNo="0" devices="tripinfo_30" vType="DEFAULT_VEHTYPE" speedFactor="1.01" vaporized=""/>
    <tripinfo id="35" depart="75.00" departLane="-226276377#1_0" departPos="5.10" departSpeed="0.00" departDelay="0.88" arrival="172.00" arrivalLane="450554042#0_0" arrivalPos="622.66" arrivalSpeed="15.35" duration="97.00" routeLength="763.53" waitingTime="37.00" waitingCount="1" stopTime="0.00" timeLoss="47.83" rerouteNo="0" devices="tripinfo_35" vType="DEFAULT_VEHTYPE" speedFactor="0.99" vaporized=""/>
    <tripinfo id="4" depart="9.00" departLane="-661251539_0" departPos="5.10" departSpeed="0.00" departDelay="0.53" arrival="173.00" arrivalLane="-256961141#1_1" arrivalPos="204.72" arrivalSpeed="13.23" duration="164.00" routeLength="872.91" waitingTime="92.00" waitingCount="1" stopTime="0.00" timeLoss="104.41" rerouteNo="0" devices="tripinfo_4" vType="DEFAULT_VEHTYPE" speedFactor="1.02" vaporized=""/>
    <tripinfo id="0" depart="0.00" departLane="65746828#0_0" departPos="5.10" departSpeed="0.00" departDelay="0.00" arrival="176.00" arrivalLane="-256961141#1_1" arrivalPos="204.72" arrivalSpeed="12.34" duration="176.00" routeLength="931.50" waitingTime="96.00" waitingCount="2" stopTime="0.00" timeLoss="110.89" rerouteNo="0" devices="tripinfo_0" vType="DEFAULT_VEHTYPE" speedFactor="0.96" vaporized=""/>
    <tripinfo id="9" depart="20.00" departLane="978867529_0" departPos="5.10" departSpeed="0.00" departDelay="0.94" arrival="178.00" arrivalLane="-256961141#1_1" arrivalPos="204.72" arrivalSpeed="15.14" duration="158.00" routeLength="1459.36" waitingTime="46.00" waitingCount="2" stopTime="0.00" timeLoss="71.06" rerouteNo="0" devices="tripinfo_9" vType="DEFAULT_VEHTYPE" speedFactor="1.11" vaporized=""/>
    <tripinfo id="18" depart="39.00" departLane="978867529_0" departPos="5.10" departSpeed="0.00" departDelay="0.88" arrival="191.00" arrivalLane="226276377#0_0" arrivalPos="135.52" arrivalSpeed="13.15" duration="152.00" routeLength="1369.55" waitingTime="48.00" waitingCount="2" stopTime="0.00" timeLoss="65.23" rerouteNo="0" devices="tripinfo_18" vType="DEFAULT_VEHTYPE" speedFactor="1.03" vaporized=""/>
    <tripinfo id="14" depart="30.00" departLane="978867529_0" departPos="5.10" departSpeed="0.00" departDelay="0.35" arrival="194.00" arrivalLane="226276377#0_0" arrivalPos="135.52" arrivalSpeed="13.97" duration="164.00" routeLength="1369.55" waitingTime="55.00" waitingCount="2" stopTime="0.00" timeLoss="81.39" rerouteNo="0" devices="tripinfo_14" vType="DEFAULT_VEHTYPE" speedFactor="1.09" vaporized=""/>
    <tripinfo id="19" depart="42.00" departLane="978867529_0" departPos="5.10" departSpeed="0.00" departDelay="1.76" arrival="196.00" arrivalLane="226276377#0_0" arrivalPos="135.52" arrivalSpeed="14.19" duration="154.00" routeLength="1369.55" waitingTime="42.00" waitingCount="2" stopTime="0.00" timeLoss="68.30" rerouteNo="0" devices="tripinfo_19" vType="DEFAULT_VEHTYPE" speedFactor="1.05" vaporized=""/>
    <tripinfo id="50" depart="106.00" departLane="-218680176#1_0" departPos="5.10" departSpeed="0.00" departDelay="0.12" arrival="196.00" arrivalLane="231177697#0_0" arrivalPos="74.44" arrivalSpeed="11.81" duration="90.00" routeLength="205.97" waitingTime="54.00" waitingCount="2" stopTime="0.00" timeLoss="73.02" rerouteNo="0" devices="tripinfo_50" vType="DEFAULT_VEHTYPE" speedFactor="0.87" vaporized=""/>
    <tripinfo id="79" depart="168.00" departLane="-231177697#2_0" departPos="5.10" departSpeed="0.00" departDelay="0.71" arrival="200.00" arrivalLane="153964138#0_0" arrivalPos="337.99" arrivalSpeed="16.64" duration="32.00" routeLength="417.38" waitingTime="0.00" waitingCount="0" stopTime="0.00" timeLoss="6.67" rerouteNo="0" devices="tripinfo_79" vType="DEFAULT_VEHTYPE" speedFactor="1.07" vaporized=""/>
    <tripinfo id="68" depart="144.00" departLane="-218680176#1_0" departPos="5.10" departSpeed="0.00" departDelay="0.00" arrival="203.00" arrivalLane="231177697#0_0" arrivalPos="74.44" arrivalSpeed="14.21" duration="59.00" routeLength="205.97" waitingTime="21.00" waitingCount="2" stopTime="0.00" timeLoss="44.12" rerouteNo="0" devices="tripinfo_68" vType="DEFAULT_VEHTYPE" speedFactor="1.04" vaporized=""/>
    <tripinfo id="28" depart="60.00" departLane="-226276377#1_0" departPos="5.10" departSpeed="0.00" departDelay="0.71" arrival="215.00" arrivalLane="231177697#0_0" arrivalPos="74.44" arrivalSpeed="12.44" duration="155.00" routeLength="1114.63" waitingTime="50.00" waitingCount="2" stopTime="0.00" timeLoss="68.94" rerouteNo="0" devices="tripinfo_28" vType="DEFAULT_VEHTYPE" speedFactor="0.91" vaporized=""/>
    <tripinfo id="61" depart="130.00" departLane="978867529_0" departPos="5.10" departSpeed="0.00" departDelay="0.82" arrival="216.00" arrivalLane="218680176#0_0" arrivalPos="98.94" arrivalSpeed="13.34" duration="86.00" routeLength="442.15" waitingTime="46.00" waitingCount="1" stopTime="0.00" timeLoss="57.28" rerouteNo="0" devices="tripinfo_61" vType="DEFAULT_VEHTYPE" speedFactor="1.03" vaporized=""/>
    <tripinfo id="26" depart="56.00" departLane="-231177697#2_0" departPos="5.10" departSpeed="0.00" departDelay="0.94" arrival="218.00" arrivalLane="450554042#0_0" arrivalPos="622.66" arrivalSpeed="17.34" duration="162.00" routeLength="1613.58" waitingTime="46.00" waitingCount="2" stopTime="0.00" timeLoss="66.17" rerouteNo="0" devices="tripinfo_26" vType="DEFAULT_VEHTYPE" speedFactor="1.07" vaporized=""/>
    <tripinfo id="11" depart="24.00" departLane="-661251539_0" departPos="5.10" departSpeed="0.00" departDelay="0.71" arrival="227.00" arrivalLane="153964138#0_0" arrivalPos="337.99" arrivalSpeed="18.84" duration="203.00" routeLength="1239.04" waitingTime="103.00" waitingCount="3" stopTime="0.00" timeLoss="128.08" rerouteNo="0" devices="tripinfo_11" vType="DEFAULT_VEHTYPE" speedFactor="1.15" vaporized=""/>
    <tripinfo id="49" depart="105.00" departLane="E8_0" departPos="5.10" departSpeed="0.00" departDelay="1.24" arrival="229.00" arrivalLane="39907424_0" arrivalPos="316.44" arrivalSpeed="13.59" duration="124.00" routeLength="1303.68" waitingTime="20.00" waitingCount="1" stopTime="0.00" timeLoss="36.89" rerouteNo="0" devices="tripinfo_49" vType="DEFAULT_VEHTYPE" speedFactor="1.05" vaporized=""/>
    <tripinfo id="42" depart="89.00" departLane="-661251539_0" departPos="5.10" departSpeed="0.00" departDelay="0.06" arrival="230.00" arrivalLane="153964138#0_1" arrivalPos="337.99" arrivalSpeed="15.23" duration="141.00" routeLength="1239.04" waitingTime="32.00" waitingCount="2" stopTime="0.00" timeLoss="51.67" rerouteNo="0" devices="tripinfo_42" vType="DEFAULT_VEHTYPE" speedFactor="0.96" vaporized=""/>
    <tripinfo id="69" depart="147.00" departLane="666135205#0_0" departPos="5.10" departSpeed="0.00" departDelay="0.88" arrival="233.00" arrivalLane="153964138#0_2" arrivalPos="337.99" arrivalSpeed="15.83" duration="86.00" routeLength="924.87" waitingTime="7.00" waitingCount="1" stopTime="0.00" timeLoss="24.72" rerouteNo="0" devices="tripinfo_69" vType="DEFAULT_VEHTYPE" speedFactor="1.03" vaporized=""/>
    <tripinfo id="25" depart="53.00" departLane="-661251539_0" departPos="5.10" departSpeed="0.00" departDelay="0.06" arrival="234.00" arrivalLane="153964138#0_0" arrivalPos="337.99" arrivalSpeed="13.55" duration="181.00" routeLength="1239.04" waitingTime="57.00" waitingCount="2" stopTime="0.00" timeLoss="76.33" rerouteNo="0" devices="tripinfo_25" vType="DEFAULT_VEHTYPE" speedFactor="0.82" vaporized=""/>
    <tripinfo id="57" depart="121.00" departLane="E8_0" departPos="5.10" departSpeed="0.00" departDelay="0.29" arrival="238.00" arrivalLane="39907424_0" arrivalPos="316.44" arrivalSpeed="11.90" duration="117.00" routeLength="1303.68" waitingTime="0.00" waitingCount="0" stopTime="0.00" timeLoss="15.69" rerouteNo="0" devices="tripinfo_57" vType="DEFAULT_VEHTYPE" speedFactor="0.90" vaporized=""/>
    <tripinfo id="51" depart="108.00" departLane="666135205#0_0" departPos="5.10" departSpeed="0.00" departDelay="0.00" arrival="241.00" arrivalLane="218680176#0_1" arrivalPos="98.94" arrivalSpeed="12.25" duration="133.00" routeLength="693.09" waitingTime="62.00" waitingCount="2" stopTime="0.00" timeLoss="76.91" rerouteNo="0" devices="tripinfo_51" vType="DEFAULT_VEHTYPE" speedFactor="0.92" vaporized=""/>
    <tripinfo id="60" depart="128.00" departLane="666135205#0_0" departPos="5.10" departSpeed="0.00" departDelay="0.94" arrival="243.00" arrivalLane="218680176#0_1" arrivalPos="98.94" arrivalSpeed="11.76" duration="115.00" routeLength="693.09" waitingTime="41.00" waitingCount="2" stopTime="0.00" timeLoss="58.34" rerouteNo="0" devices="tripinfo_60" vType="DEFAULT_VEHTYPE" speedFactor="0.91" vaporized=""/>
    <tripinfo id="75" depart="159.00" departLane="E8_0" departPos="5.10" departSpeed="0.00" departDelay="0.18" arrival="244.00" arrivalLane="226276377#0_1" arrivalPos="135.52" arrivalSpeed="12.05" duration="85.00" routeLength="784.51" waitingTime="12.00" waitingCount="1" stopTime="0.00" timeLoss="24.25" rerouteNo="0" devices="tripinfo_75" vType="DEFAULT_VEHTYPE" speedFactor="0.95" vaporized=""/>
    <tripinfo id="85" depart="180.00" departLane="E8_0" departPos="5.10" departSpeed="0.00" departDelay="0.00" arrival="247.00" arrivalLane="226276377#0_1" arrivalPos="135.52" arrivalSpeed="12.53" duration="67.00" routeLength="784.51" waitingTime="0.00" waitingCount="0" stopTime="0.00" timeLoss="6.02" rerouteNo="0" devices="tripinfo_85" vType="DEFAULT_VEHTYPE" speedFactor="0.95" vaporized=""/>
    <tripinfo id="13" depart="28.00" departLane="-218680176#1_0" departPos="5.10" departSpeed="0.00" departDelay="0.47" arrival="248.00" arrivalLane="-256961141#1_1" arrivalPos="204.72" arrivalSpeed="13.32" duration="220.00" routeLength="1207.38" waitingTime="120.00" waitingCount="2" stopTime="0.00" timeLoss="138.21" rerouteNo="0" devices="tripinfo_13" vType="DEFAULT_VEHTYPE" speedFactor="1.00" vaporized=""/>
    <tripinfo id="86" depart="183.00" departLane="256961141#0_0" departPos="5.10" departSpeed="0.00" departDelay="0.88" arrival="253.00" arrivalLane="39907424_0" arrivalPos="316.44" arrivalSpeed="14.92" duration="70.00" routeLength="873.95" waitingTime="2.00" waitingCount="1" stopTime="0.00" timeLoss="15.50" rerouteNo="0" devices="tripinfo_86" vType="DEFAULT_VEHTYPE" speedFactor="1.11" vaporized=""/>
    <tripinfo id="78" depart="166.00" departLane="-661251539_0" departPos="5.10" departSpeed="0.00" departDelay="0.82" arrival="268.00" arrivalLane="226276377#0_0" arrivalPos="135.52" arrivalSpeed="14.16" duration="102.00" routeLength="783.10" waitingTime="31.00" waitingCount="2" stopTime="0.00" timeLoss="50.37" rerouteNo="0" devices="tripinfo_78" vType="DEFAULT_VEHTYPE" speedFactor="1.06" vaporized=""/>
    <tripinfo id="29" depart="63.00" departLane="-226276377#1_0" departPos="5.10" departSpeed="0.00" departDelay="1.59" arrival="270.00" arrivalLane="210831347#0_1" arrivalPos="149.88" arrivalSpeed="13.54" duration="207.00" routeLength="888.52" waitingTime="127.00" waitingCount="1" stopTime="0.00" timeLoss="145.55" rerouteNo="0" devices="tripinfo_29" vType="DEFAULT_VEHTYPE" speedFactor="1.00" vaporized=""/>
    <tripinfo id="91" depart="193.00" departLane="E8_0" departPos="5.10" departSpeed="0.00" departDelay="0.29" arrival="270.00" arrivalLane="-256961141#1_0" arrivalPos="204.72" arrivalSpeed="14.68" duration="77.00" routeLength="832.89" waitingTime="11.00" waitingCount="1" stopTime="0.00" timeLoss="22.19" rerouteNo="0" devices="tripinfo_91" vType="DEFAULT_VEHTYPE" speedFactor="1.10" vaporized=""/>
    <tripinfo id="12" depart="26.00" departLane="E8_0" departPos="5.10" departSpeed="0.00" departDelay="0.59" arrival="271.00" arrivalLane="210831347#0_1" arrivalPos="149.88" arrivalSpeed="14.32" duration="245.00" routeLength="1367.17" waitingTime="134.00" waitingCount="2" stopTime="0.00" timeLoss="154.88" rerouteNo="0" devices="tripinfo_12" vType="DEFAULT_VEHTYPE" speedFactor="1.05" vaporized=""/>
    <tripinfo id="92" depart="195.00" departLane="-661251539_0" departPos="5.10" departSpeed="0.00" departDelay="0.18" arrival="274.00" arrivalLane="210831347#0_1" arrivalPos="149.88" arrivalSpeed="13.34" duration="79.00" routeLength="731.18" waitingTime="12.00" waitingCount="1" stopTime="0.00" timeLoss="24.82" rerouteNo="0" devices="tripinfo_92" vType="DEFAULT_VEHTYPE" speedFactor="1.00" vaporized=""/>
    <tripinfo id="1" depart="3.00" departLane="-231177697#2_0" departPos="5.10" departSpeed="0.00" departDelay="0.88" arrival="283.00" arrivalLane="210831345#1_0" arrivalPos="264.29" arrivalSpeed="10.76" duration="280.00" routeLength="696.92" waitingTime="201.00" waitingCount="2" stopTime="0.00" timeLoss="216.28" rerouteNo="0" devices="tripinfo_1" vType="DEFAULT_VEHTYPE" speedFactor="0.80" vaporized=""/>
    <tripinfo id="21" depart="45.00" departLane="-231177697#2_0" departPos="5.10" departSpeed="0.00" departDelay="0.53" arrival="283.00" arrivalLane="210831345#1_1" arrivalPos="264.29" arrivalSpeed="12.50" duration="238.00" routeLength="696.92" waitingTime="163.00" waitingCount="1" stopTime="0.00" timeLoss="183.19" rerouteNo="0" devices="tripinfo_21" vType="DEFAULT_VEHTYPE" speedFactor="0.93" vaporized=""/>
    <tripinfo id="22" depart="47.00" departLane="-218680176#1_0" departPos="5.10" departSpeed="0.00" departDelay="0.41" arrival="285.00" arrivalLane="210831345#1_1" arrivalPos="264.29" arrivalSpeed="14.95" duration="238.00" routeLength="699.94" waitingTime="165.00" waitingCount="3" stopTime="0.00" timeLoss="192.42" rerouteNo="0" devices="tripinfo_22" vType="DEFAULT_VEHTYPE" speedFactor="1.14" vaporized=""/>
    <tripinfo id="36" depart="77.00" departLane="978867529_0" departPos="5.10" departSpeed="0.00" departDelay="0.76" arrival="285.00" arrivalLane="210831345#1_0" arrivalPos="264.29" arrivalSpeed="13.50" duration="208.00" routeLength="951.92" waitingTime="127.00" waitingCount="1" stopTime="0.00" timeLoss="142.77" rerouteNo="0" devices="tripinfo_36" vType="DEFAULT_VEHTYPE" speedFactor="1.01" vaporized=""/>
    <tripinfo id="23" depart="50.00" departLane="-218680176#1_0" departPos="5.10" departSpeed="0.00" departDelay="1.29" arrival="287.00" arrivalLane="210831345#1_1" arrivalPos="264.29" arrivalSpeed="15.33" duration="237.00" routeLength="699.94" waitingTime="160.00" waitingCount="3" stopTime="0.00" timeLoss="189.89" rerouteNo="0" devices="tripinfo_23" vType="DEFAULT_VEHTYPE" speedFactor="1.11" vaporized=""/>
    <tripinfo id="62" depart="132.00" departLane="-218680176#1_0" departPos="5.10" departSpeed="0.00" departDelay="0.71" arrival="289.00" arrivalLane="210831345#1_1" arrivalPos="264.29" arrivalSpeed="15.96" duration="157.00" routeLength="699.94" waitingTime="76.00" waitingCount="3" stopTime="0.00" timeLoss="111.25" rerouteNo="0" devices="tripinfo_62" vType="DEFAULT_VEHTYPE" speedFactor="1.16" vaporized=""/>
    <tripinfo id="93" depart="197.00" departLane="978867529_0" departPos="5.10" departSpeed="0.00" departDelay="0.06" arrival="293.00" arrivalLane="210831345#1_1" arrivalPos="264.29" arrivalSpeed="14.14" duration="96.00" routeLength="951.92" waitingTime="17.00" waitingCount="1" stopTime="0.00" timeLoss="36.86" rerouteNo="0" devices="tripinfo_93" vType="DEFAULT_VEHTYPE" speedFactor="1.11" vaporized=""/>
    <tripinfo id="41" depart="88.00" departLane="65746828#0_0" departPos="5.10" departSpeed="0.00" departDelay="1.18" arrival="294.00" arrivalLane="450554042#0_0" arrivalPos="622.66" arrivalSpeed="17.22" duration="206.00" routeLength="1340.72" waitingTime="108.00" waitingCount="2" stopTime="0.00" timeLoss="128.35" rerouteNo="0" devices="tripinfo_41" vType="DEFAULT_VEHTYPE" speedFactor="1.08" vaporized=""/>
    <tripinfo id="55" depart="117.00" departLane="978867529_0" departPos="5.10" departSpeed="0.00" departDelay="0.53" arrival="294.00" arrivalLane="210831345#1_0" arrivalPos="264.29" arrivalSpeed="10.86" duration="177.00" routeLength="951.92" waitingTime="80.00" waitingCount="2" stopTime="0.00" timeLoss="98.72" rerouteNo="0" devices="tripinfo_55" vType="DEFAULT_VEHTYPE" speedFactor="0.84" vaporized=""/>
    <tripinfo id="115" depart="244.00" departLane="-218680176#1_0" departPos="5.10" departSpeed="0.00" departDelay="0.47" arrival="304.00" arrivalLane="153964138#0_2" arrivalPos="337.99" arrivalSpeed="16.68" duration="60.00" routeLength="462.27" waitingTime="21.00" waitingCount="1" stopTime="0.00" timeLoss="30.64" rerouteNo="0" devices="tripinfo_115" vType="DEFAULT_VEHTYPE" speedFactor="1.01" vaporized=""/>
    <tripinfo id="128" depart="272.00" departLane="-218680176#1_0" departPos="5.10" departSpeed="0.00" departDelay="0.94" arrival="307.00" arrivalLane="153964138#0_2" arrivalPos="337.99" arrivalSpeed="15.87" duration="35.00" routeLength="462.27" waitingTime="0.00" waitingCount="0" stopTime="0.00" timeLoss="5.19" rerouteNo="0" devices="tripinfo_128" vType="DEFAULT_VEHTYPE" speedFactor="1.00" vaporized=""/>
    <tripinfo id="99" depart="210.00" departLane="E8_0" departPos="5.10" departSpeed="0.00" departDelay="0.35" arrival="323.00" arrivalLane="39907424_0" arrivalPos="316.44" arrivalSpeed="12.06" duration="113.00" routeLength="1303.68" waitingTime="2.00" waitingCount="1" stopTime="0.00" timeLoss="16.85" rerouteNo="0" devices="tripinfo_99" vType="DEFAULT_VEHTYPE" speedFactor="0.94" vaporized=""/>
    <tripinfo id="114" depart="242.00" departLane="-226276377#1_0" departPos="5.10" departSpeed="0.00" departDelay="0.59" arrival="325.00" arrivalLane="450554042#0_0" arrivalPos="622.66" arrivalSpeed="13.79" duration="83.00" routeLength="763.53" waitingTime="20.00" waitingCount="1" stopTime="0.00" timeLoss="28.81" rerouteNo="0" devices="tripinfo_114" vType="DEFAULT_VEHTYPE" speedFactor="0.89" vaporized=""/>
    <tripinfo id="113" depart="240.00" departLane="256961141#0_0" departPos="5.10" departSpeed="0.00" departDelay="0.71" arrival="328.00" arrivalLane="39907424_0" arrivalPos="316.44" arrivalSpeed="16.20" duration="88.00" routeLength="873.95" waitingTime="21.00" waitingCount="1" stopTime="0.00" timeLoss="36.25" rerouteNo="0" devices="tripinfo_113" vType="DEFAULT_VEHTYPE" speedFactor="1.18" vaporized=""/>
    <tripinfo id="106" depart="225.00" departLane="256961141#0_0" departPos="5.10" departSpeed="0.00" departDelay="0.53" arrival="345.00" arrivalLane="210831347#0_1" arrivalPos="149.88" arrivalSpeed="12.09" duration="120.00" routeLength="937.44" waitingTime="33.00" waitingCount="3" stopTime="0.00" timeLoss="52.52" rerouteNo="0" devices="tripinfo_106" vType="DEFAULT_VEHTYPE" speedFactor="0.96" vaporized=""/>
    <tripinfo id="39" depart="83.00" departLane="-231177697#2_0" departPos="5.10" departSpeed="0.00" departDelay="0.41" arrival="355.00" arrivalLane="210831345#1_0" arrivalPos="264.29" arrivalSpeed="16.31" duration="272.00" routeLength="696.92" waitingTime="202.00" waitingCount="3" stopTime="0.00" timeLoss="228.45" rerouteNo="0" devices="tripinfo_39" vType="DEFAULT_VEHTYPE" speedFactor="1.18" vaporized=""/>
    <tripinfo id="34" depart="72.00" departLane="-231177697#2_0" departPos="5.10" departSpeed="0.00" departDelay="0.00" arrival="356.00" arrivalLane="210831345#1_0" arrivalPos="264.29" arrivalSpeed="11.33" duration="284.00" routeLength="696.92" waitingTime="208.00" waitingCount="2" stopTime="0.00" timeLoss="225.95" rerouteNo="0" devices="tripinfo_34" vType="DEFAULT_VEHTYPE" speedFactor="0.88" vaporized=""/>
    <tripinfo id="54" depart="115.00" departLane="256961141#0_0" departPos="5.10" departSpeed="0.00" departDelay="0.65" arrival="373.00" arrivalLane="450554042#0_0" arrivalPos="622.66" arrivalSpeed="15.97" duration="258.00" routeLength="853.74" waitingTime="192.00" waitingCount="1" stopTime="0.00" timeLoss="201.78" rerouteNo="0" devices="tripinfo_54" vType="DEFAULT_VEHTYPE" speedFactor="0.97" vaporized=""/>
    <tripinfo id="121" depart="257.00" departLane="256961141#0_0" departPos="5.10" departSpeed="0.00" departDelay="0.76" arrival="377.00" arrivalLane="450554042#0_0" arrivalPos="622.66" arrivalSpeed="15.20" duration="120.00" routeLength="853.74" waitingTime="50.00" waitingCount="1" stopTime="0.00" timeLoss="61.62" rerouteNo="0" devices="tripinfo_121" vType="DEFAULT_VEHTYPE" speedFactor="0.93" vaporized=""/>
    <tripinfo id="142" depart="301.00" departLane="256961141#0_0" departPos="5.10" departSpeed="0.00" departDelay="0.29" arrival="388.00" arrivalLane="450554042#0_0" arrivalPos="622.66" arrivalSpeed="11.99" duration="87.00" routeLength="853.74" waitingTime="5.00" waitingCount="1" stopTime="0.00" timeLoss="17.16" rerouteNo="0" devices="tripinfo_142" vType="DEFAULT_VEHTYPE" speedFactor="0.78" vaporized=""/>
    <tripinfo id="132" depart="280.00" departLane="978867529_0" departPos="5.10" departSpeed="0.00" departDelay="0.47" arrival="389.00" arrivalLane="231177697#0_1" arrivalPos="74.44" arrivalSpeed="11.76" duration="109.00" routeLength="437.06" waitingTime="67.00" waitingCount="1" stopTime="0.00" timeLoss="77.12" rerouteNo="0" devices="tripinfo_132" vType="DEFAULT_VEHTYPE" speedFactor="0.89" vaporized=""/>
    <tripinfo id="145" depart="308.00" departLane="-218680176#1_0" departPos="5.10" departSpeed="0.00" departDelay="0.94" arrival="408.00" arrivalLane="231177697#0_0" arrivalPos="74.44" arrivalSpeed="14.87" duration="100.00" routeLength="205.97" waitingTime="77.00" waitingCount="1" stopTime="0.00" timeLoss="86.80" rerouteNo="0" devices="tripinfo_145" vType="DEFAULT_VEHTYPE" speedFactor="1.16" vaporized=""/>
    <tripinfo id="110" depart="233.00" departLane="E8_0" departPos="5.10" departSpeed="0.00" departDelay="0.06" arrival="418.00" arrivalLane="226276377#0_1" arrivalPos="135.52" arrivalSpeed="14.43" duration="185.00" routeLength="784.51" waitingTime="120.00" waitingCount="1" stopTime="0.00" timeLoss="132.38" rerouteNo="0" devices="tripinfo_110" vType="DEFAULT_VEHTYPE" speedFactor="1.10" vaporized=""/>
    <tripinfo id="117" depart="248.00" departLane="-231177697#2_0" departPos="5.10" departSpeed="0.00" departDelay="0.24" arrival="423.00" arrivalLane="153964138#0_0" arrivalPos="337.99" arrivalSpeed="15.19" duration="175.00" routeLength="417.38" waitingTime="133.00" waitingCount="2" stopTime="0.00" timeLoss="148.14" rerouteNo="0" devices="tripinfo_117" vType="DEFAULT_VEHTYPE" speedFactor="0.99" vaporized=""/>
    <tripinfo id="103" depart="219.00" departLane="-661251539_0" departPos="5.10" departSpeed="0.00" departDelay="0.88" arrival="424.00" arrivalLane="-256961141#1_1" arrivalPos="204.72" arrivalSpeed="12.52" duration="205.00" routeLength="872.91" waitingTime="129.00" waitingCount="1" stopTime="0.00" timeLoss="141.14" rerouteNo="0" devices="tripinfo_103" vType="DEFAULT_VEHTYPE" speedFactor="0.95" vaporized=""/>