<?xml version="1.0" encoding="UTF-8"?>

<!-- generated on 2024-09-03 02:42:05 by Eclipse SUMO sumo Version 1.20.0
<configuration xmlns:xsi="http://www.w3.org/2001/XMLSchema-instance" xsi:noNamespaceSchemaLocation="http://sumo.dlr.de/xsd/sumoConfiguration.xsd">

    <input>
        <net-file value="c:\self\School\Master\Disertation\code\RESCO\resco_benchmark\environments/unirii/osm.net.xml.gz"/>
        <route-files value="c:\self\School\Master\Disertation\code\RESCO\resco_benchmark\environments/unirii/osm.passenger.trips.xml"/>
        <additional-files value="c:\self\School\Master\Disertation\code\RESCO\resco_benchmark\environments/unirii/osm.poly.xml.gz"/>
    </input>

    <output>
        <tripinfo-output value="C:\self\School\Master\Disertation\code\RESCO\results\IA2C-tr0-unirii-0-drq_norm-wait_norm\tripinfo_37.xml"/>
        <tripinfo-output.write-unfinished value="true"/>
    </output>

    <processing>
        <ignore-route-errors value="true"/>
        <time-to-teleport value="-1"/>
    </processing>

    <routing>
        <device.rerouting.adaptation-steps value="18"/>
        <device.rerouting.adaptation-interval value="10"/>
    </routing>

    <report>
        <verbose value="true"/>
        <no-warnings value="True"/>
        <duration-log.statistics value="true"/>
        <no-step-log value="True"/>
    </report>

    <traci_server>
        <remote-port value="52208"/>
    </traci_server>

    <random_number>
        <random value="true"/>
    </random_number>

    <gui_only>
        <gui-settings-file value="c:\self\School\Master\Disertation\code\RESCO\resco_benchmark\environments/unirii/osm.view.xml"/>
    </gui_only>

</configuration>
-->

<tripinfos xmlns:xsi="http://www.w3.org/2001/XMLSchema-instance" xsi:noNamespaceSchemaLocation="http://sumo.dlr.de/xsd/tripinfo_file.xsd">
    <tripinfo id="7" depart="15.00" departLane="65746828#0_0" departPos="5.10" departSpeed="0.00" departDelay="0.18" arrival="64.00" arrivalLane="218680176#0_1" arrivalPos="98.94" arrivalSpeed="13.60" duration="49.00" routeLength="602.71" waitingTime="0.00" waitingCount="0" stopTime="0.00" timeLoss="7.25" rerouteNo="0" devices="tripinfo_7" vType="DEFAULT_VEHTYPE" speedFactor="1.06" vaporized=""/>
    <tripinfo id="10" depart="23.00" departLane="978867529_0" departPos="5.10" departSpeed="0.00" departDelay="1.82" arrival="64.00" arrivalLane="231177697#0_1" arrivalPos="74.44" arrivalSpeed="12.92" duration="41.00" routeLength="437.06" waitingTime="1.00" waitingCount="1" stopTime="0.00" timeLoss="12.24" rerouteNo="0" devices="tripinfo_10" vType="DEFAULT_VEHTYPE" speedFactor="1.01" vaporized=""/>
    <tripinfo id="15" depart="33.00" departLane="978867529_0" departPos="5.10" departSpeed="0.00" departDelay="1.24" arrival="68.00" arrivalLane="231177697#0_1" arrivalPos="74.44" arrivalSpeed="13.01" duration="35.00" routeLength="437.06" waitingTime="0.00" waitingCount="0" stopTime="0.00" timeLoss="6.32" rerouteNo="0" devices="tripinfo_15" vType="DEFAULT_VEHTYPE" speedFactor="0.99" vaporized=""/>
    <tripinfo id="40" depart="85.00" departLane="65746828#0_0" departPos="5.10" departSpeed="0.00" departDelay="0.29" arrival="119.00" arrivalLane="210831345#1_0" arrivalPos="264.29" arrivalSpeed="14.98" duration="34.00" routeLength="446.75" waitingTime="0.00" waitingCount="0" stopTime="0.00" timeLoss="4.27" rerouteNo="0" devices="tripinfo_40" vType="DEFAULT_VEHTYPE" speedFactor="1.12" vaporized=""/>
    <tripinfo id="35" depart="75.00" departLane="-226276377#1_0" departPos="5.10" departSpeed="0.00" departDelay="0.88" arrival="121.00" arrivalLane="450554042#0_0" arrivalPos="622.66" arrivalSpeed="20.65" duration="46.00" routeLength="763.53" waitingTime="0.00" waitingCount="0" stopTime="0.00" timeLoss="8.18" rerouteNo="0" devices="tripinfo_35" vType="DEFAULT_VEHTYPE" speedFactor="1.27" vaporized=""/>
    <tripinfo id="50" depart="106.00" departLane="-218680176#1_0" departPos="5.10" departSpeed="0.00" departDelay="0.12" arrival="124.00" arrivalLane="231177697#0_0" arrivalPos="74.44" arrivalSpeed="14.51" duration="18.00" routeLength="205.97" waitingTime="0.00" waitingCount="0" stopTime="0.00" timeLoss="3.63" rerouteNo="0" devices="tripinfo_50" vType="DEFAULT_VEHTYPE" speedFactor="1.08" vaporized=""/>
    <tripinfo id="2" depart="5.00" departLane="666135205#0_0" departPos="5.10" departSpeed="0.00" departDelay="0.76" arrival="137.00" arrivalLane="231177697#0_0" arrivalPos="74.44" arrivalSpeed="12.65" duration="132.00" routeLength="649.17" waitingTime="66.00" waitingCount="2" stopTime="0.00" timeLoss="83.62" rerouteNo="0" devices="tripinfo_2" vType="DEFAULT_VEHTYPE" speedFactor="0.99" vaporized=""/>
    <tripinfo id="31" depart="66.00" departLane="65746828#0_0" departPos="5.10" departSpeed="0.00" departDelay="0.35" arrival="142.00" arrivalLane="231177697#0_0" arrivalPos="74.44" arrivalSpeed="11.78" duration="76.00" routeLength="558.79" waitingTime="18.00" waitingCount="1" stopTime="0.00" timeLoss="31.16" rerouteNo="0" devices="tripinfo_31" vType="DEFAULT_VEHTYPE" speedFactor="0.91" vaporized=""/>
    <tripinfo id="27" depart="58.00" departLane="65746828#0_0" departPos="5.10" departSpeed="0.00" departDelay="0.82" arrival="144.00" arrivalLane="226276377#0_0" arrivalPos="135.52" arrivalSpeed="10.32" duration="86.00" routeLength="841.69" waitingTime="3.00" waitingCount="2" stopTime="0.00" timeLoss="17.92" rerouteNo="0" devices="tripinfo_27" vType="DEFAULT_VEHTYPE" speedFactor="0.83" vaporized=""/>
    <tripinfo id="3" depart="7.00" departLane="E8_0" departPos="5.10" departSpeed="0.00" departDelay="0.65" arrival="145.00" arrivalLane="-256961141#1_0" arrivalPos="204.72" arrivalSpeed="14.58" duration="138.00" routeLength="832.89" waitingTime="72.00" waitingCount="1" stopTime="0.00" timeLoss="82.41" rerouteNo="0" devices="tripinfo_3" vType="DEFAULT_VEHTYPE" speedFactor="1.09" vaporized=""/>
    <tripinfo id="32" depart="68.00" departLane="978867529_0" departPos="5.10" departSpeed="0.00" departDelay="0.24" arrival="163.00" arrivalLane="231177697#0_1" arrivalPos="74.44" arrivalSpeed="13.22" duration="95.00" routeLength="437.06" waitingTime="57.00" waitingCount="1" stopTime="0.00" timeLoss="67.11" rerouteNo="0" devices="tripinfo_32" vType="DEFAULT_VEHTYPE" speedFactor="1.03" vaporized=""/>
    <tripinfo id="51" depart="108.00" departLane="666135205#0_0" departPos="5.10" departSpeed="0.00" departDelay="0.00" arrival="163.00" arrivalLane="218680176#0_1" arrivalPos="98.94" arrivalSpeed="15.07" duration="55.00" routeLength="693.09" waitingTime="0.00" waitingCount="0" stopTime="0.00" timeLoss="7.96" rerouteNo="0" devices="tripinfo_51" vType="DEFAULT_VEHTYPE" speedFactor="1.09" vaporized=""/>
    <tripinfo id="30" depart="64.00" departLane="E8_0" departPos="5.10" departSpeed="0.00" departDelay="0.47" arrival="169.00" arrivalLane="226276377#0_1" arrivalPos="135.52" arrivalSpeed="12.60" duration="105.00" routeLength="784.51" waitingTime="32.00" waitingCount="1" stopTime="0.00" timeLoss="42.40" rerouteNo="0" devices="tripinfo_30" vType="DEFAULT_VEHTYPE" speedFactor="0.91" vaporized=""/>
    <tripinfo id="0" depart="0.00" departLane="65746828#0_0" departPos="5.10" departSpeed="0.00" departDelay="0.00" arrival="172.00" arrivalLane="-256961141#1_1" arrivalPos="204.72" arrivalSpeed="14.15" duration="172.00" routeLength="931.50" waitingTime="101.00" waitingCount="1" stopTime="0.00" timeLoss="115.31" rerouteNo="0" devices="tripinfo_0" vType="DEFAULT_VEHTYPE" speedFactor="1.10" vaporized=""/>
    <tripinfo id="4" depart="9.00" departLane="-661251539_0" departPos="5.10" departSpeed="0.00" departDelay="0.53" arrival="176.00" arrivalLane="-256961141#1_1" arrivalPos="204.72" arrivalSpeed="11.87" duration="167.00" routeLength="872.91" waitingTime="86.00" waitingCount="1" stopTime="0.00" timeLoss="100.98" rerouteNo="0" devices="tripinfo_4" vType="DEFAULT_VEHTYPE" speedFactor="0.92" vaporized=""/>
    <tripinfo id="47" depart="100.00" departLane="-218680176#1_0" departPos="5.10" departSpeed="0.00" departDelay="0.47" arrival="177.00" arrivalLane="210831347#0_0" arrivalPos="149.88" arrivalSpeed="11.88" duration="77.00" routeLength="560.58" waitingTime="10.00" waitingCount="1" stopTime="0.00" timeLoss="29.89" rerouteNo="0" devices="tripinfo_47" vType="DEFAULT_VEHTYPE" speedFactor="0.90" vaporized=""/>
    <tripinfo id="20" depart="43.00" departLane="666135205#0_0" departPos="5.10" departSpeed="0.00" departDelay="0.65" arrival="178.00" arrivalLane="-256961141#1_1" arrivalPos="204.72" arrivalSpeed="12.75" duration="135.00" routeLength="1068.72" waitingTime="47.00" waitingCount="1" stopTime="0.00" timeLoss="60.45" rerouteNo="0" devices="tripinfo_20" vType="DEFAULT_VEHTYPE" speedFactor="0.97" vaporized=""/>
    <tripinfo id="46" depart="98.00" departLane="978867529_0" departPos="5.10" departSpeed="0.00" departDelay="0.59" arrival="180.00" arrivalLane="210831347#0_0" arrivalPos="149.88" arrivalSpeed="11.67" duration="82.00" routeLength="812.56" waitingTime="0.00" waitingCount="0" stopTime="0.00" timeLoss="19.51" rerouteNo="0" devices="tripinfo_46" vType="DEFAULT_VEHTYPE" speedFactor="0.90" vaporized=""/>
    <tripinfo id="61" depart="130.00" departLane="978867529_0" departPos="5.10" departSpeed="0.00" departDelay="0.82" arrival="190.00" arrivalLane="218680176#0_0" arrivalPos="98.94" arrivalSpeed="11.46" duration="60.00" routeLength="442.15" waitingTime="19.00" waitingCount="1" stopTime="0.00" timeLoss="27.16" rerouteNo="0" devices="tripinfo_61" vType="DEFAULT_VEHTYPE" speedFactor="0.89" vaporized=""/>
    <tripinfo id="11" depart="24.00" departLane="-661251539_0" departPos="5.10" departSpeed="0.00" departDelay="0.71" arrival="201.00" arrivalLane="153964138#0_0" arrivalPos="337.99" arrivalSpeed="17.11" duration="177.00" routeLength="1239.04" waitingTime="79.00" waitingCount="1" stopTime="0.00" timeLoss="96.40" rerouteNo="0" devices="tripinfo_11" vType="DEFAULT_VEHTYPE" speedFactor="1.06" vaporized=""/>
    <tripinfo id="42" depart="89.00" departLane="-661251539_0" departPos="5.10" departSpeed="0.00" departDelay="0.06" arrival="201.00" arrivalLane="153964138#0_1" arrivalPos="337.99" arrivalSpeed="17.11" duration="112.00" routeLength="1239.04" waitingTime="13.00" waitingCount="1" stopTime="0.00" timeLoss="29.61" rerouteNo="0" devices="tripinfo_42" vType="DEFAULT_VEHTYPE" speedFactor="1.04" vaporized=""/>
    <tripinfo id="25" depart="53.00" departLane="-661251539_0" departPos="5.10" departSpeed="0.00" departDelay="0.06" arrival="204.00" arrivalLane="153964138#0_0" arrivalPos="337.99" arrivalSpeed="16.72" duration="151.00" routeLength="1239.04" waitingTime="49.00" waitingCount="2" stopTime="0.00" timeLoss="67.90" rerouteNo="0" devices="tripinfo_25" vType="DEFAULT_VEHTYPE" speedFactor="1.04" vaporized=""/>
    <tripinfo id="68" depart="144.00" departLane="-218680176#1_0" departPos="5.10" departSpeed="0.00" departDelay="0.00" arrival="215.00" arrivalLane="231177697#0_0" arrivalPos="74.44" arrivalSpeed="14.32" duration="71.00" routeLength="205.97" waitingTime="42.00" waitingCount="2" stopTime="0.00" timeLoss="56.45" rerouteNo="0" devices="tripinfo_68" vType="DEFAULT_VEHTYPE" speedFactor="1.05" vaporized=""/>
    <tripinfo id="60" depart="128.00" departLane="666135205#0_0" departPos="5.10" departSpeed="0.00" departDelay="0.94" arrival="240.00" arrivalLane="218680176#0_1" arrivalPos="98.94" arrivalSpeed="15.02" duration="112.00" routeLength="693.09" waitingTime="53.00" waitingCount="1" stopTime="0.00" timeLoss="64.80" rerouteNo="0" devices="tripinfo_60" vType="DEFAULT_VEHTYPE" speedFactor="1.11" vaporized=""/>
    <tripinfo id="14" depart="30.00" departLane="978867529_0" departPos="5.10" departSpeed="0.00" departDelay="0.35" arrival="242.00" arrivalLane="226276377#0_0" arrivalPos="135.52" arrivalSpeed="15.02" duration="212.00" routeLength="1369.55" waitingTime="104.00" waitingCount="3" stopTime="0.00" timeLoss="134.50" rerouteNo="0" devices="tripinfo_14" vType="DEFAULT_VEHTYPE" speedFactor="1.16" vaporized=""/>
    <tripinfo id="17" depart="36.00" departLane="-661251539_0" departPos="5.10" departSpeed="0.00" departDelay="0.00" arrival="242.00" arrivalLane="218680176#0_1" arrivalPos="98.94" arrivalSpeed="12.93" duration="206.00" routeLength="1001.21" waitingTime="113.00" waitingCount="2" stopTime="0.00" timeLoss="134.24" rerouteNo="0" devices="tripinfo_17" vType="DEFAULT_VEHTYPE" speedFactor="1.02" vaporized=""/>
    <tripinfo id="18" depart="39.00" departLane="978867529_0" departPos="5.10" departSpeed="0.00" departDelay="0.88" arrival="247.00" arrivalLane="226276377#0_0" arrivalPos="135.52" arrivalSpeed="12.98" duration="208.00" routeLength="1369.55" waitingTime="88.00" waitingCount="3" stopTime="0.00" timeLoss="113.70" rerouteNo="0" devices="tripinfo_18" vType="DEFAULT_VEHTYPE" speedFactor="0.95" vaporized=""/>
    <tripinfo id="19" depart="42.00" departLane="978867529_0" departPos="5.10" departSpeed="0.00" departDelay="1.76" arrival="250.00" arrivalLane="226276377#0_0" arrivalPos="135.52" arrivalSpeed="12.16" duration="208.00" routeLength="1369.55" waitingTime="79.00" waitingCount="3" stopTime="0.00" timeLoss="107.19" rerouteNo="0" devices="tripinfo_19" vType="DEFAULT_VEHTYPE" speedFactor="0.89" vaporized=""/>
    <tripinfo id="45" depart="97.00" departLane="-218680176#1_0" departPos="5.10" departSpeed="0.00" departDelay="1.71" arrival="256.00" arrivalLane="226276377#0_0" arrivalPos="135.52" arrivalSpeed="10.38" duration="159.00" routeLength="1117.57" waitingTime="36.00" waitingCount="2" stopTime="0.00" timeLoss="61.17" rerouteNo="0" devices="tripinfo_45" vType="DEFAULT_VEHTYPE" speedFactor="0.78" vaporized=""/>
    <tripinfo id="78" depart="166.00" departLane="-661251539_0" departPos="5.10" departSpeed="0.00" departDelay="0.82" arrival="257.00" arrivalLane="226276377#0_0" arrivalPos="135.52" arrivalSpeed="10.82" duration="91.00" routeLength="783.10" waitingTime="13.00" waitingCount="1" stopTime="0.00" timeLoss="34.44" rerouteNo="0" devices="tripinfo_78" vType="DEFAULT_VEHTYPE" speedFactor="0.96" vaporized=""/>
    <tripinfo id="86" depart="183.00" departLane="256961141#0_0" departPos="5.10" departSpeed="0.00" departDelay="0.88" arrival="257.00" arrivalLane="39907424_0" arrivalPos="316.44" arrivalSpeed="13.08" duration="74.00" routeLength="873.95" waitingTime="0.00" waitingCount="0" stopTime="0.00" timeLoss="10.02" rerouteNo="0" devices="tripinfo_86" vType="DEFAULT_VEHTYPE" speedFactor="0.95" vaporized=""/>
    <tripinfo id="41" depart="88.00" departLane="65746828#0_0" departPos="5.10" departSpeed="0.00" departDelay="1.18" arrival="267.00" arrivalLane="450554042#0_0" arrivalPos="622.66" arrivalSpeed="17.75" duration="179.00" routeLength="1340.72" waitingTime="85.00" waitingCount="2" stopTime="0.00" timeLoss="104.39" rerouteNo="0" devices="tripinfo_41" vType="DEFAULT_VEHTYPE" speedFactor="1.12" vaporized=""/>
    <tripinfo id="91" depart="193.00" departLane="E8_0" departPos="5.10" departSpeed="0.00" departDelay="0.29" arrival="267.00" arrivalLane="-256961141#1_0" arrivalPos="204.72" arrivalSpeed="12.48" duration="74.00" routeLength="832.89" waitingTime="0.00" waitingCount="0" stopTime="0.00" timeLoss="8.14" rerouteNo="0" devices="tripinfo_91" vType="DEFAULT_VEHTYPE" speedFactor="0.93" vaporized=""/>
    <tripinfo id="12" depart="26.00" departLane="E8_0" departPos="5.10" departSpeed="0.00" departDelay="0.59" arrival="273.00" arrivalLane="210831347#0_1" arrivalPos="149.88" arrivalSpeed="10.07" duration="247.00" routeLength="1367.17" waitingTime="108.00" waitingCount="2" stopTime="0.00" timeLoss="126.08" rerouteNo="0" devices="tripinfo_12" vType="DEFAULT_VEHTYPE" speedFactor="0.79" vaporized=""/>
    <tripinfo id="92" depart="195.00" departLane="-661251539_0" departPos="5.10" departSpeed="0.00" departDelay="0.18" arrival="275.00" arrivalLane="210831347#0_1" arrivalPos="149.88" arrivalSpeed="13.25" duration="80.00" routeLength="731.18" waitingTime="11.00" waitingCount="1" stopTime="0.00" timeLoss="27.80" rerouteNo="0" devices="tripinfo_92" vType="DEFAULT_VEHTYPE" speedFactor="1.04" vaporized=""/>
    <tripinfo id="22" depart="47.00" departLane="-218680176#1_0" departPos="5.10" departSpeed="0.00" departDelay="0.41" arrival="277.00" arrivalLane="210831345#1_1" arrivalPos="264.29" arrivalSpeed="14.63" duration="230.00" routeLength="699.94" waitingTime="164.00" waitingCount="2" stopTime="0.00" timeLoss="181.40" rerouteNo="0" devices="tripinfo_22" vType="DEFAULT_VEHTYPE" speedFactor="1.07" vaporized=""/>
    <tripinfo id="23" depart="50.00" departLane="-218680176#1_0" departPos="5.10" departSpeed="0.00" departDelay="1.29" arrival="278.00" arrivalLane="210831345#1_1" arrivalPos="264.29" arrivalSpeed="14.47" duration="228.00" routeLength="699.94" waitingTime="158.00" waitingCount="3" stopTime="0.00" timeLoss="180.85" rerouteNo="0" devices="tripinfo_23" vType="DEFAULT_VEHTYPE" speedFactor="1.09" vaporized=""/>
    <tripinfo id="57" depart="121.00" departLane="E8_0" departPos="5.10" departSpeed="0.00" departDelay="0.29" arrival="281.00" arrivalLane="39907424_0" arrivalPos="316.44" arrivalSpeed="12.47" duration="160.00" routeLength="1303.68" waitingTime="51.00" waitingCount="1" stopTime="0.00" timeLoss="68.44" rerouteNo="0" devices="tripinfo_57" vType="DEFAULT_VEHTYPE" speedFactor="0.99" vaporized=""/>
    <tripinfo id="36" depart="77.00" departLane="978867529_0" departPos="5.10" departSpeed="0.00" departDelay="0.76" arrival="282.00" arrivalLane="210831345#1_1" arrivalPos="264.29" arrivalSpeed="13.03" duration="205.00" routeLength="951.92" waitingTime="123.00" waitingCount="2" stopTime="0.00" timeLoss="140.00" rerouteNo="0" devices="tripinfo_36" vType="DEFAULT_VEHTYPE" speedFactor="1.02" vaporized=""/>
    <tripinfo id="55" depart="117.00" departLane="978867529_0" departPos="5.10" departSpeed="0.00" departDelay="0.53" arrival="284.00" arrivalLane="210831345#1_1" arrivalPos="264.29" arrivalSpeed="13.07" duration="167.00" routeLength="951.92" waitingTime="90.00" waitingCount="1" stopTime="0.00" timeLoss="101.03" rerouteNo="0" devices="tripinfo_55" vType="DEFAULT_VEHTYPE" speedFactor="0.99" vaporized=""/>
    <tripinfo id="49" depart="105.00" departLane="E8_0" departPos="5.10" departSpeed="0.00" departDelay="1.24" arrival="286.00" arrivalLane="39907424_0" arrivalPos="316.44" arrivalSpeed="12.11" duration="181.00" routeLength="1303.68" waitingTime="66.00" waitingCount="1" stopTime="0.00" timeLoss="82.97" rerouteNo="0" devices="tripinfo_49" vType="DEFAULT_VEHTYPE" speedFactor="0.93" vaporized=""/>
    <tripinfo id="62" depart="132.00" departLane="-218680176#1_0" departPos="5.10" departSpeed="0.00" departDelay="0.71" arrival="286.00" arrivalLane="210831345#1_1" arrivalPos="264.29" arrivalSpeed="14.71" duration="154.00" routeLength="699.94" waitingTime="87.00" waitingCount="2" stopTime="0.00" timeLoss="106.31" rerouteNo="0" devices="tripinfo_62" vType="DEFAULT_VEHTYPE" speedFactor="1.09" vaporized=""/>
    <tripinfo id="90" depart="191.00" departLane="666135205#0_0" departPos="5.10" departSpeed="0.00" departDelay="0.41" arrival="290.00" arrivalLane="231177697#0_0" arrivalPos="74.44" arrivalSpeed="13.32" duration="99.00" routeLength="649.17" waitingTime="33.00" waitingCount="2" stopTime="0.00" timeLoss="49.56" rerouteNo="0" devices="tripinfo_90" vType="DEFAULT_VEHTYPE" speedFactor="1.00" vaporized=""/>
    <tripinfo id="114" depart="242.00" departLane="-226276377#1_0" departPos="5.10" departSpeed="0.00" departDelay="0.59" arrival="292.00" arrivalLane="450554042#0_0" arrivalPos="622.66" arrivalSpeed="18.43" duration="50.00" routeLength="763.53" waitingTime="0.00" waitingCount="0" stopTime="0.00" timeLoss="7.02" rerouteNo="0" devices="tripinfo_114" vType="DEFAULT_VEHTYPE" speedFactor="1.13" vaporized=""/>
    <tripinfo id="88" depart="187.00" departLane="-218680176#1_0" departPos="5.10" departSpeed="0.00" departDelay="0.65" arrival="294.00" arrivalLane="210831347#0_0" arrivalPos="149.88" arrivalSpeed="15.79" duration="107.00" routeLength="560.58" waitingTime="51.00" waitingCount="2" stopTime="0.00" timeLoss="70.18" rerouteNo="0" devices="tripinfo_88" vType="DEFAULT_VEHTYPE" speedFactor="1.16" vaporized=""/>
    <tripinfo id="59" depart="125.00" departLane="65746828#0_0" departPos="5.10" departSpeed="0.00" departDelay="0.06" arrival="305.00" arrivalLane="153964138#0_0" arrivalPos="337.99" arrivalSpeed="15.80" duration="180.00" routeLength="834.49" waitingTime="104.00" waitingCount="2" stopTime="0.00" timeLoss="121.99" rerouteNo="0" devices="tripinfo_59" vType="DEFAULT_VEHTYPE" speedFactor="0.98" vaporized=""/>
    <tripinfo id="69" depart="147.00" departLane="666135205#0_0" departPos="5.10" departSpeed="0.00" departDelay="0.88" arrival="305.00" arrivalLane="153964138#0_1" arrivalPos="337.99" arrivalSpeed="14.94" duration="158.00" routeLength="924.87" waitingTime="75.00" waitingCount="2" stopTime="0.00" timeLoss="90.89" rerouteNo="0" devices="tripinfo_69" vType="DEFAULT_VEHTYPE" speedFactor="0.94" vaporized=""/>
    <tripinfo id="95" depart="202.00" departLane="-661251539_0" departPos="5.10" departSpeed="0.00" departDelay="0.82" arrival="309.00" arrivalLane="210831345#1_0" arrivalPos="264.29" arrivalSpeed="13.99" duration="107.00" routeLength="826.64" waitingTime="29.00" waitingCount="1" stopTime="0.00" timeLoss="46.21" rerouteNo="0" devices="tripinfo_95" vType="DEFAULT_VEHTYPE" speedFactor="1.01" vaporized=""/>
    <tripinfo id="113" depart="240.00" departLane="256961141#0_0" departPos="5.10" departSpeed="0.00" departDelay="0.71" arrival="321.00" arrivalLane="39907424_0" arrivalPos="316.44" arrivalSpeed="12.02" duration="81.00" routeLength="873.95" waitingTime="0.00" waitingCount="0" stopTime="0.00" timeLoss="11.80" rerouteNo="0" devices="tripinfo_113" vType="DEFAULT_VEHTYPE" speedFactor="0.88" vaporized=""/>
    <tripinfo id="16" depart="34.00" departLane="256961141#0_0" departPos="5.10" departSpeed="0.00" departDelay="0.12" arrival="325.00" arrivalLane="450554042#0_0" arrivalPos="622.66" arrivalSpeed="15.48" duration="291.00" routeLength="853.74" waitingTime="222.00" waitingCount="1" stopTime="0.00" timeLoss="233.06" rerouteNo="0" devices="tripinfo_16" vType="DEFAULT_VEHTYPE" speedFactor="0.95" vaporized=""/>
    <tripinfo id="54" depart="115.00" departLane="256961141#0_0" departPos="5.10" departSpeed="0.00" departDelay="0.65" arrival="326.00" arrivalLane="450554042#0_1" arrivalPos="622.66" arrivalSpeed="16.10" duration="211.00" routeLength="853.74" waitingTime="141.00" waitingCount="1" stopTime="0.00" timeLoss="154.38" rerouteNo="0" devices="tripinfo_54" vType="DEFAULT_VEHTYPE" speedFactor="0.97" vaporized=""/>
    <tripinfo id="121" depart="257.00" departLane="256961141#0_0" departPos="5.10" departSpeed="0.00" departDelay="0.76" arrival="326.00" arrivalLane="450554042#0_2" arrivalPos="622.66" arrivalSpeed="17.16" duration="69.00" routeLength="853.74" waitingTime="3.00" waitingCount="1" stopTime="0.00" timeLoss="17.85" rerouteNo="0" devices="tripinfo_121" vType="DEFAULT_VEHTYPE" speedFactor="1.07" vaporized=""/>
    <tripinfo id="145" depart="308.00" departLane="-218680176#1_0" departPos="5.10" departSpeed="0.00" departDelay="0.94" arrival="328.00" arrivalLane="231177697#0_0" arrivalPos="74.44" arrivalSpeed="12.02" duration="20.00" routeLength="205.97" waitingTime="0.00" waitingCount="0" stopTime="0.00" timeLoss="3.14" rerouteNo="0" devices="tripinfo_145" vType="DEFAULT_VEHTYPE" speedFactor="0.89" vaporized=""/>
    <tripinfo id="64" depart="136.00" departLane="978867529_0" departPos="5.10" departSpeed="0.00" departDelay="0.47" arrival="329.00" arrivalLane="39907424_0" arrivalPos="316.44" arrivalSpeed="11.30" duration="193.00" routeLength="1216.15" waitingTime="78.00" waitingCount="2" stopTime="0.00" timeLoss="100.29" rerouteNo="0" devices="tripinfo_64" vType="DEFAULT_VEHTYPE" speedFactor="0.89" vaporized=""/>
    <tripinfo id="132" depart="280.00" departLane="978867529_0" departPos="5.10" departSpeed="0.00" departDelay="0.47" arrival="338.00" arrivalLane="231177697#0_1" arrivalPos="74.44" arrivalSpeed="15.34" duration="58.00" routeLength="437.06" waitingTime="21.00" waitingCount="1" stopTime="0.00" timeLoss="33.01" rerouteNo="0" devices="tripinfo_132" vType="DEFAULT_VEHTYPE" speedFactor="1.16" vaporized=""/>
    <tripinfo id="76" depart="161.00" departLane="-661251539_0" departPos="5.10" departSpeed="0.00" departDelay="0.06" arrival="340.00" arrivalLane="218680176#0_1" arrivalPos="98.94" arrivalSpeed="13.60" duration="179.00" routeLength="1001.21" waitingTime="90.00" waitingCount="2" stopTime="0.00" timeLoss="107.16" rerouteNo="0" devices="tripinfo_76" vType="DEFAULT_VEHTYPE" speedFactor="1.02" vaporized=""/>
    <tripinfo id="38" depart="81.00" departLane="E8_0" departPos="5.10" departSpeed="0.00" departDelay="0.53" arrival="342.00" arrivalLane="218680176#0_1" arrivalPos="98.94" arrivalSpeed="12.88" duration="261.00" routeLength="1637.20" waitingTime="113.00" waitingCount="2" stopTime="0.00" timeLoss="143.80" rerouteNo="0" devices="tripinfo_38" vType="DEFAULT_VEHTYPE" speedFactor="0.98" vaporized=""/>
    <tripinfo id="43" depart="92.00" departLane="E8_0" departPos="5.10" departSpeed="0.00" departDelay="0.94" arrival="344.00" arrivalLane="218680176#0_1" arrivalPos="98.94" arrivalSpeed="13.45" duration="252.00" routeLength="1637.20" waitingTime="110.00" waitingCount="2" stopTime="0.00" timeLoss="139.26" rerouteNo="0" devices="tripinfo_43" vType="DEFAULT_VEHTYPE" speedFactor="1.02" vaporized=""/>
    <tripinfo id="106" depart="225.00" departLane="256961141#0_0" departPos="5.10" departSpeed="0.00" departDelay="0.53" arrival="344.00" arrivalLane="210831347#0_1" arrivalPos="149.88" arrivalSpeed="14.01" duration="119.00" routeLength="937.44" waitingTime="40.00" waitingCount="2" stopTime="0.00" timeLoss="58.13" rerouteNo="0" devices="tripinfo_106" vType="DEFAULT_VEHTYPE" speedFactor="1.07" vaporized=""/>
    <tripinfo id="29" depart="63.00" departLane="-226276377#1_0" departPos="5.10" departSpeed="0.00" departDelay="1.59" arrival="347.00" arrivalLane="210831347#0_1" arrivalPos="149.88" arrivalSpeed="13.53" duration="284.00" routeLength="888.52" waitingTime="203.00" waitingCount="2" stopTime="0.00" timeLoss="222.22" rerouteNo="0" devices="tripinfo_29" vType="DEFAULT_VEHTYPE" speedFactor="1.00" vaporized=""/>
    <tripinfo id="70" depart="149.00" departLane="256961141#0_0" departPos="5.10" departSpeed="0.00" departDelay="0.76" arrival="347.00" arrivalLane="218680176#0_1" arrivalPos="98.94" arrivalSpeed="11.87" duration="198.00" routeLength="1207.47" waitingTime="76.00" waitingCount="3" stopTime="0.00" timeLoss="105.98" rerouteNo="0" devices="tripinfo_70" vType="DEFAULT_VEHTYPE" speedFactor="0.92" vaporized=""/>
    <tripinfo id="53" depart="113.00" departLane="-226276377#1_0" departPos="5.10" departSpeed="0.00" departDelay="0.76" arrival="348.00" arrivalLane="210831347#0_1" arrivalPos="149.88" arrivalSpeed="14.09" duration="235.00" routeLength="888.52" waitingTime="155.00" waitingCount="2" stopTime="0.00" timeLoss="176.63" rerouteNo="0" devices="tripinfo_53" vType="DEFAULT_VEHTYPE" speedFactor="1.04" vaporized=""/>
    <tripinfo id="89" depart="189.00" departLane="-661251539_0" departPos="5.10" departSpeed="0.00" departDelay="0.53" arrival="348.00" arrivalLane="218680176#0_1" arrivalPos="98.94" arrivalSpeed="14.35" duration="159.00" routeLength="1001.21" waitingTime="61.00" waitingCount="2" stopTime="0.00" timeLoss="88.30" rerouteNo="0" devices="tripinfo_89" vType="DEFAULT_VEHTYPE" speedFactor="1.04" vaporized=""/>
    <tripinfo id="48" depart="102.00" departLane="E8_0" departPos="5.10" departSpeed="0.00" departDelay="0.35" arrival="353.00" arrivalLane="218680176#0_1" arrivalPos="98.94" arrivalSpeed="10.54" duration="251.00" routeLength="1637.20" waitingTime="75.00" waitingCount="2" stopTime="0.00" timeLoss="106.67" rerouteNo="0" devices="tripinfo_48" vType="DEFAULT_VEHTYPE" speedFactor="0.80" vaporized=""/>
    <tripinfo id="93" depart="197.00" departLane="978867529_0" departPos="5.10" departSpeed="0.00" departDelay="0.06" arrival="353.00" arrivalLane="210831345#1_1" arrivalPos="264.29" arrivalSpeed="13.06" duration="156.00" routeLength="951.92" waitingTime="73.00" waitingCount="2" stopTime="0.00" timeLoss="89.80" rerouteNo="0" devices="tripinfo_93" vType="DEFAULT_VEHTYPE" speedFactor="0.99" vaporized=""/>
    <tripinfo id="142" depart="301.00" departLane="256961141#0_0" departPos="5.10" departSpeed="0.00" departDelay="0.29" arrival="361.00" arrivalLane="450554042#0_0" arrivalPos="622.66" arrivalSpeed="15.74" duration="60.00" routeLength="853.74" waitingTime="0.00" waitingCount="0" stopTime="0.00" timeLoss="5.58" rerouteNo="0" devices="tripinfo_142" vType="DEFAULT_VEHTYPE" speedFactor="1.01" vaporized=""/>
    <tripinfo id="73" depart="155.00" departLane="256961141#0_0" departPos="5.10" departSpeed="0.00" departDelay="0.41" arrival="366.00" arrivalLane="231177697#0_0" arrivalPos="74.44" arrivalSpeed="10.45" duration="211.00" routeLength="1163.55" waitingTime="88.00" waitingCount="2" stopTime="0.00" timeLoss="109.01" rerouteNo="0" devices="tripinfo_73" vType="DEFAULT_VEHTYPE" speedFactor="0.80" vaporized=""/>
    <tripinfo id="108" depart="229.00" departLane="65746828#0_0" departPos="5.10" departSpeed="0.00" departDelay="0.29" arrival="368.00" arrivalLane="231177697#0_0" arrivalPos="74.44" arrivalSpeed="12.28" duration="139.00" routeLength="558.79" waitingTime="77.00" waitingCount="2" stopTime="0.00" timeLoss="94.22" rerouteNo="0" devices="tripinfo_108" vType="DEFAULT_VEHTYPE" speedFactor="0.93" vaporized=""/>
    <tripinfo id="116" depart="246.00" departLane="65746828#0_0" departPos="5.10" departSpeed="0.00" departDelay="0.35" arrival="370.00" arrivalLane="231177697#0_0" arrivalPos="74.44" arrivalSpeed="13.63" duration="124.00" routeLength="558.79" waitingTime="61.00" waitingCount="2" stopTime="0.00" timeLoss="83.58" rerouteNo="0" devices="tripinfo_116" vType="DEFAULT_VEHTYPE" speedFactor="1.03" vaporized=""/>