<?xml version="1.0" encoding="UTF-8"?>

<!-- generated on 2024-09-03 02:46:38 by Eclipse SUMO sumo Version 1.20.0
<configuration xmlns:xsi="http://www.w3.org/2001/XMLSchema-instance" xsi:noNamespaceSchemaLocation="http://sumo.dlr.de/xsd/sumoConfiguration.xsd">

    <input>
        <net-file value="c:\self\School\Master\Disertation\code\RESCO\resco_benchmark\environments/unirii/osm.net.xml.gz"/>
        <route-files value="c:\self\School\Master\Disertation\code\RESCO\resco_benchmark\environments/unirii/osm.passenger.trips.xml"/>
        <additional-files value="c:\self\School\Master\Disertation\code\RESCO\resco_benchmark\environments/unirii/osm.poly.xml.gz"/>
    </input>

    <output>
        <tripinfo-output value="C:\self\School\Master\Disertation\code\RESCO\results\IA2C-tr0-unirii-0-drq_norm-wait_norm\tripinfo_55.xml"/>
        <tripinfo-output.write-unfinished value="true"/>
    </output>

    <processing>
        <ignore-route-errors value="true"/>
        <time-to-teleport value="-1"/>
    </processing>

    <routing>
        <device.rerouting.adaptation-steps value="18"/>
        <device.rerouting.adaptation-interval value="10"/>
    </routing>

    <report>
        <verbose value="true"/>
        <no-warnings value="True"/>
        <duration-log.statistics value="true"/>
        <no-step-log value="True"/>
    </report>

    <traci_server>
        <remote-port value="52377"/>
    </traci_server>

    <random_number>
        <random value="true"/>
    </random_number>

    <gui_only>
        <gui-settings-file value="c:\self\School\Master\Disertation\code\RESCO\resco_benchmark\environments/unirii/osm.view.xml"/>
    </gui_only>

</configuration>
-->

<tripinfos xmlns:xsi="http://www.w3.org/2001/XMLSchema-instance" xsi:noNamespaceSchemaLocation="http://sumo.dlr.de/xsd/tripinfo_file.xsd">
    <tripinfo id="2" depart="5.00" departLane="666135205#0_0" departPos="5.10" departSpeed="0.00" departDelay="0.76" arrival="51.00" arrivalLane="231177697#0_0" arrivalPos="74.44" arrivalSpeed="17.93" duration="46.00" routeLength="649.17" waitingTime="0.00" waitingCount="0" stopTime="0.00" timeLoss="8.44" rerouteNo="0" devices="tripinfo_2" vType="DEFAULT_VEHTYPE" speedFactor="1.29" vaporized=""/>
    <tripinfo id="3" depart="7.00" departLane="E8_0" departPos="5.10" departSpeed="0.00" departDelay="0.65" arrival="73.00" arrivalLane="-256961141#1_0" arrivalPos="204.72" arrivalSpeed="14.53" duration="66.00" routeLength="832.89" waitingTime="0.00" waitingCount="0" stopTime="0.00" timeLoss="7.65" rerouteNo="0" devices="tripinfo_3" vType="DEFAULT_VEHTYPE" speedFactor="1.05" vaporized=""/>
    <tripinfo id="10" depart="23.00" departLane="978867529_0" departPos="5.10" departSpeed="0.00" departDelay="1.82" arrival="88.00" arrivalLane="231177697#0_1" arrivalPos="74.44" arrivalSpeed="14.15" duration="65.00" routeLength="437.06" waitingTime="29.00" waitingCount="1" stopTime="0.00" timeLoss="38.51" rerouteNo="0" devices="tripinfo_10" vType="DEFAULT_VEHTYPE" speedFactor="1.09" vaporized=""/>
    <tripinfo id="15" depart="33.00" departLane="978867529_0" departPos="5.10" departSpeed="0.00" departDelay="1.24" arrival="90.00" arrivalLane="231177697#0_1" arrivalPos="74.44" arrivalSpeed="12.51" duration="57.00" routeLength="437.06" waitingTime="16.00" waitingCount="1" stopTime="0.00" timeLoss="27.60" rerouteNo="0" devices="tripinfo_15" vType="DEFAULT_VEHTYPE" speedFactor="0.97" vaporized=""/>
    <tripinfo id="32" depart="68.00" departLane="978867529_0" departPos="5.10" departSpeed="0.00" departDelay="0.24" arrival="108.00" arrivalLane="231177697#0_1" arrivalPos="74.44" arrivalSpeed="10.35" duration="40.00" routeLength="437.06" waitingTime="0.00" waitingCount="0" stopTime="0.00" timeLoss="4.76" rerouteNo="0" devices="tripinfo_32" vType="DEFAULT_VEHTYPE" speedFactor="0.83" vaporized=""/>
    <tripinfo id="0" depart="0.00" departLane="65746828#0_0" departPos="5.10" departSpeed="0.00" departDelay="0.00" arrival="122.00" arrivalLane="-256961141#1_1" arrivalPos="204.72" arrivalSpeed="15.20" duration="122.00" routeLength="931.50" waitingTime="53.00" waitingCount="1" stopTime="0.00" timeLoss="65.62" rerouteNo="0" devices="tripinfo_0" vType="DEFAULT_VEHTYPE" speedFactor="1.11" vaporized=""/>
    <tripinfo id="30" depart="64.00" departLane="E8_0" departPos="5.10" departSpeed="0.00" departDelay="0.47" arrival="124.00" arrivalLane="226276377#0_1" arrivalPos="135.52" arrivalSpeed="13.99" duration="60.00" routeLength="784.51" waitingTime="0.00" waitingCount="0" stopTime="0.00" timeLoss="5.96" rerouteNo="0" devices="tripinfo_30" vType="DEFAULT_VEHTYPE" speedFactor="1.06" vaporized=""/>
    <tripinfo id="4" depart="9.00" departLane="-661251539_0" departPos="5.10" departSpeed="0.00" departDelay="0.53" arrival="125.00" arrivalLane="-256961141#1_1" arrivalPos="204.72" arrivalSpeed="13.96" duration="116.00" routeLength="872.91" waitingTime="45.00" waitingCount="1" stopTime="0.00" timeLoss="56.83" rerouteNo="0" devices="tripinfo_4" vType="DEFAULT_VEHTYPE" speedFactor="1.04" vaporized=""/>
    <tripinfo id="6" depart="13.00" departLane="-218680176#1_0" departPos="5.10" departSpeed="0.00" departDelay="0.29" arrival="130.00" arrivalLane="153964138#0_2" arrivalPos="337.99" arrivalSpeed="15.30" duration="117.00" routeLength="462.27" waitingTime="78.00" waitingCount="1" stopTime="0.00" timeLoss="85.29" rerouteNo="0" devices="tripinfo_6" vType="DEFAULT_VEHTYPE" speedFactor="0.94" vaporized=""/>
    <tripinfo id="35" depart="75.00" departLane="-226276377#1_0" departPos="5.10" departSpeed="0.00" departDelay="0.88" arrival="133.00" arrivalLane="450554042#0_0" arrivalPos="622.66" arrivalSpeed="15.61" duration="58.00" routeLength="763.53" waitingTime="0.00" waitingCount="0" stopTime="0.00" timeLoss="6.78" rerouteNo="0" devices="tripinfo_35" vType="DEFAULT_VEHTYPE" speedFactor="0.95" vaporized=""/>
    <tripinfo id="20" depart="43.00" departLane="666135205#0_0" departPos="5.10" departSpeed="0.00" departDelay="0.65" arrival="136.00" arrivalLane="-256961141#1_1" arrivalPos="204.72" arrivalSpeed="13.69" duration="93.00" routeLength="1068.72" waitingTime="9.00" waitingCount="1" stopTime="0.00" timeLoss="20.66" rerouteNo="0" devices="tripinfo_20" vType="DEFAULT_VEHTYPE" speedFactor="1.00" vaporized=""/>
    <tripinfo id="7" depart="15.00" departLane="65746828#0_0" departPos="5.10" departSpeed="0.00" departDelay="0.18" arrival="139.00" arrivalLane="218680176#0_1" arrivalPos="98.94" arrivalSpeed="14.95" duration="124.00" routeLength="602.71" waitingTime="68.00" waitingCount="2" stopTime="0.00" timeLoss="84.52" rerouteNo="0" devices="tripinfo_7" vType="DEFAULT_VEHTYPE" speedFactor="1.12" vaporized=""/>
    <tripinfo id="17" depart="36.00" departLane="-661251539_0" departPos="5.10" departSpeed="0.00" departDelay="0.00" arrival="143.00" arrivalLane="218680176#0_1" arrivalPos="98.94" arrivalSpeed="12.65" duration="107.00" routeLength="1001.21" waitingTime="16.00" waitingCount="1" stopTime="0.00" timeLoss="27.74" rerouteNo="0" devices="tripinfo_17" vType="DEFAULT_VEHTYPE" speedFactor="0.93" vaporized=""/>
    <tripinfo id="40" depart="85.00" departLane="65746828#0_0" departPos="5.10" departSpeed="0.00" departDelay="0.29" arrival="163.00" arrivalLane="210831345#1_0" arrivalPos="264.29" arrivalSpeed="9.18" duration="78.00" routeLength="446.75" waitingTime="24.00" waitingCount="1" stopTime="0.00" timeLoss="33.89" rerouteNo="0" devices="tripinfo_40" vType="DEFAULT_VEHTYPE" speedFactor="0.74" vaporized=""/>
    <tripinfo id="13" depart="28.00" departLane="-218680176#1_0" departPos="5.10" departSpeed="0.00" departDelay="0.47" arrival="164.00" arrivalLane="-256961141#1_1" arrivalPos="204.72" arrivalSpeed="12.54" duration="136.00" routeLength="1207.38" waitingTime="34.00" waitingCount="2" stopTime="0.00" timeLoss="48.13" rerouteNo="0" devices="tripinfo_13" vType="DEFAULT_VEHTYPE" speedFactor="0.93" vaporized=""/>
    <tripinfo id="31" depart="66.00" departLane="65746828#0_0" departPos="5.10" departSpeed="0.00" departDelay="0.35" arrival="165.00" arrivalLane="231177697#0_0" arrivalPos="74.44" arrivalSpeed="13.12" duration="99.00" routeLength="558.79" waitingTime="44.00" waitingCount="1" stopTime="0.00" timeLoss="55.37" rerouteNo="0" devices="tripinfo_31" vType="DEFAULT_VEHTYPE" speedFactor="0.96" vaporized=""/>
    <tripinfo id="61" depart="130.00" departLane="978867529_0" departPos="5.10" departSpeed="0.00" departDelay="0.82" arrival="169.00" arrivalLane="218680176#0_0" arrivalPos="98.94" arrivalSpeed="13.02" duration="39.00" routeLength="442.15" waitingTime="0.00" waitingCount="0" stopTime="0.00" timeLoss="8.44" rerouteNo="0" devices="tripinfo_61" vType="DEFAULT_VEHTYPE" speedFactor="0.96" vaporized=""/>
    <tripinfo id="25" depart="53.00" departLane="-661251539_0" departPos="5.10" departSpeed="0.00" departDelay="0.06" arrival="178.00" arrivalLane="153964138#0_0" arrivalPos="337.99" arrivalSpeed="16.18" duration="125.00" routeLength="1239.04" waitingTime="18.00" waitingCount="2" stopTime="0.00" timeLoss="40.75" rerouteNo="0" devices="tripinfo_25" vType="DEFAULT_VEHTYPE" speedFactor="1.02" vaporized=""/>
    <tripinfo id="11" depart="24.00" departLane="-661251539_0" departPos="5.10" departSpeed="0.00" departDelay="0.71" arrival="179.00" arrivalLane="153964138#0_0" arrivalPos="337.99" arrivalSpeed="14.71" duration="155.00" routeLength="1239.04" waitingTime="52.00" waitingCount="1" stopTime="0.00" timeLoss="65.23" rerouteNo="0" devices="tripinfo_11" vType="DEFAULT_VEHTYPE" speedFactor="0.95" vaporized=""/>
    <tripinfo id="16" depart="34.00" departLane="256961141#0_0" departPos="5.10" departSpeed="0.00" departDelay="0.12" arrival="190.00" arrivalLane="450554042#0_1" arrivalPos="622.66" arrivalSpeed="19.43" duration="156.00" routeLength="853.74" waitingTime="100.00" waitingCount="1" stopTime="0.00" timeLoss="111.46" rerouteNo="0" devices="tripinfo_16" vType="DEFAULT_VEHTYPE" speedFactor="1.22" vaporized=""/>
    <tripinfo id="54" depart="115.00" departLane="256961141#0_0" departPos="5.10" departSpeed="0.00" departDelay="0.65" arrival="192.00" arrivalLane="450554042#0_2" arrivalPos="622.66" arrivalSpeed="19.79" duration="77.00" routeLength="853.74" waitingTime="19.00" waitingCount="1" stopTime="0.00" timeLoss="33.31" rerouteNo="0" devices="tripinfo_54" vType="DEFAULT_VEHTYPE" speedFactor="1.26" vaporized=""/>
    <tripinfo id="50" depart="106.00" departLane="-218680176#1_0" departPos="5.10" departSpeed="0.00" departDelay="0.12" arrival="194.00" arrivalLane="231177697#0_0" arrivalPos="74.44" arrivalSpeed="10.70" duration="88.00" routeLength="205.97" waitingTime="55.00" waitingCount="2" stopTime="0.00" timeLoss="70.36" rerouteNo="0" devices="tripinfo_50" vType="DEFAULT_VEHTYPE" speedFactor="0.85" vaporized=""/>
    <tripinfo id="68" depart="144.00" departLane="-218680176#1_0" departPos="5.10" departSpeed="0.00" departDelay="0.00" arrival="200.00" arrivalLane="231177697#0_0" arrivalPos="74.44" arrivalSpeed="14.17" duration="56.00" routeLength="205.97" waitingTime="21.00" waitingCount="2" stopTime="0.00" timeLoss="42.20" rerouteNo="0" devices="tripinfo_68" vType="DEFAULT_VEHTYPE" speedFactor="1.08" vaporized=""/>
    <tripinfo id="79" depart="168.00" departLane="-231177697#2_0" departPos="5.10" departSpeed="0.00" departDelay="0.71" arrival="202.00" arrivalLane="153964138#0_0" arrivalPos="337.99" arrivalSpeed="16.02" duration="34.00" routeLength="417.38" waitingTime="0.00" waitingCount="0" stopTime="0.00" timeLoss="6.81" rerouteNo="0" devices="tripinfo_79" vType="DEFAULT_VEHTYPE" speedFactor="0.99" vaporized=""/>
    <tripinfo id="27" depart="58.00" departLane="65746828#0_0" departPos="5.10" departSpeed="0.00" departDelay="0.82" arrival="217.00" arrivalLane="226276377#0_0" arrivalPos="135.52" arrivalSpeed="11.93" duration="159.00" routeLength="841.69" waitingTime="84.00" waitingCount="2" stopTime="0.00" timeLoss="98.34" rerouteNo="0" devices="tripinfo_27" vType="DEFAULT_VEHTYPE" speedFactor="0.92" vaporized=""/>
    <tripinfo id="52" depart="111.00" departLane="-231177697#2_0" departPos="5.10" departSpeed="0.00" departDelay="0.88" arrival="220.00" arrivalLane="226276377#0_0" arrivalPos="135.52" arrivalSpeed="12.48" duration="109.00" routeLength="1114.55" waitingTime="12.00" waitingCount="2" stopTime="0.00" timeLoss="29.01" rerouteNo="0" devices="tripinfo_52" vType="DEFAULT_VEHTYPE" speedFactor="0.95" vaporized=""/>
    <tripinfo id="59" depart="125.00" departLane="65746828#0_0" departPos="5.10" departSpeed="0.00" departDelay="0.06" arrival="224.00" arrivalLane="153964138#0_1" arrivalPos="337.99" arrivalSpeed="18.45" duration="99.00" routeLength="834.49" waitingTime="37.00" waitingCount="1" stopTime="0.00" timeLoss="48.01" rerouteNo="0" devices="tripinfo_59" vType="DEFAULT_VEHTYPE" speedFactor="1.12" vaporized=""/>
    <tripinfo id="42" depart="89.00" departLane="-661251539_0" departPos="5.10" departSpeed="0.00" departDelay="0.06" arrival="227.00" arrivalLane="153964138#0_0" arrivalPos="337.99" arrivalSpeed="17.59" duration="138.00" routeLength="1239.04" waitingTime="38.00" waitingCount="2" stopTime="0.00" timeLoss="58.64" rerouteNo="0" devices="tripinfo_42" vType="DEFAULT_VEHTYPE" speedFactor="1.08" vaporized=""/>
    <tripinfo id="78" depart="166.00" departLane="-661251539_0" departPos="5.10" departSpeed="0.00" departDelay="0.82" arrival="235.00" arrivalLane="226276377#0_0" arrivalPos="135.52" arrivalSpeed="12.81" duration="69.00" routeLength="783.10" waitingTime="1.00" waitingCount="1" stopTime="0.00" timeLoss="14.92" rerouteNo="0" devices="tripinfo_78" vType="DEFAULT_VEHTYPE" speedFactor="1.01" vaporized=""/>
    <tripinfo id="51" depart="108.00" departLane="666135205#0_0" departPos="5.10" departSpeed="0.00" departDelay="0.00" arrival="241.00" arrivalLane="218680176#0_1" arrivalPos="98.94" arrivalSpeed="12.45" duration="133.00" routeLength="693.09" waitingTime="66.00" waitingCount="1" stopTime="0.00" timeLoss="78.38" rerouteNo="0" devices="tripinfo_51" vType="DEFAULT_VEHTYPE" speedFactor="0.93" vaporized=""/>
    <tripinfo id="60" depart="128.00" departLane="666135205#0_0" departPos="5.10" departSpeed="0.00" departDelay="0.94" arrival="244.00" arrivalLane="218680176#0_1" arrivalPos="98.94" arrivalSpeed="11.64" duration="116.00" routeLength="693.09" waitingTime="49.00" waitingCount="1" stopTime="0.00" timeLoss="57.94" rerouteNo="0" devices="tripinfo_60" vType="DEFAULT_VEHTYPE" speedFactor="0.89" vaporized=""/>
    <tripinfo id="41" depart="88.00" departLane="65746828#0_0" departPos="5.10" departSpeed="0.00" departDelay="1.18" arrival="248.00" arrivalLane="450554042#0_0" arrivalPos="622.66" arrivalSpeed="14.84" duration="160.00" routeLength="1340.72" waitingTime="51.00" waitingCount="2" stopTime="0.00" timeLoss="72.09" rerouteNo="0" devices="tripinfo_41" vType="DEFAULT_VEHTYPE" speedFactor="0.95" vaporized=""/>
    <tripinfo id="26" depart="56.00" departLane="-231177697#2_0" departPos="5.10" departSpeed="0.00" departDelay="0.94" arrival="253.00" arrivalLane="450554042#0_0" arrivalPos="622.66" arrivalSpeed="13.59" duration="197.00" routeLength="1613.58" waitingTime="53.00" waitingCount="3" stopTime="0.00" timeLoss="77.93" rerouteNo="0" devices="tripinfo_26" vType="DEFAULT_VEHTYPE" speedFactor="0.86" vaporized=""/>
    <tripinfo id="49" depart="105.00" departLane="E8_0" departPos="5.10" departSpeed="0.00" departDelay="1.24" arrival="260.00" arrivalLane="39907424_0" arrivalPos="316.44" arrivalSpeed="12.71" duration="155.00" routeLength="1303.68" waitingTime="43.00" waitingCount="1" stopTime="0.00" timeLoss="57.66" rerouteNo="0" devices="tripinfo_49" vType="DEFAULT_VEHTYPE" speedFactor="0.93" vaporized=""/>
    <tripinfo id="57" depart="121.00" departLane="E8_0" departPos="5.10" departSpeed="0.00" departDelay="0.29" arrival="262.00" arrivalLane="39907424_0" arrivalPos="316.44" arrivalSpeed="14.09" duration="141.00" routeLength="1303.68" waitingTime="34.00" waitingCount="1" stopTime="0.00" timeLoss="58.02" rerouteNo="0" devices="tripinfo_57" vType="DEFAULT_VEHTYPE" speedFactor="1.10" vaporized=""/>
    <tripinfo id="46" depart="98.00" departLane="978867529_0" departPos="5.10" departSpeed="0.00" departDelay="0.59" arrival="270.00" arrivalLane="210831347#0_0" arrivalPos="149.88" arrivalSpeed="10.71" duration="172.00" routeLength="812.56" waitingTime="85.00" waitingCount="3" stopTime="0.00" timeLoss="104.68" rerouteNo="0" devices="tripinfo_46" vType="DEFAULT_VEHTYPE" speedFactor="0.83" vaporized=""/>
    <tripinfo id="47" depart="100.00" departLane="-218680176#1_0" departPos="5.10" departSpeed="0.00" departDelay="0.47" arrival="272.00" arrivalLane="210831347#0_0" arrivalPos="149.88" arrivalSpeed="12.77" duration="172.00" routeLength="560.58" waitingTime="107.00" waitingCount="3" stopTime="0.00" timeLoss="129.29" rerouteNo="0" devices="tripinfo_47" vType="DEFAULT_VEHTYPE" speedFactor="0.98" vaporized=""/>
    <tripinfo id="88" depart="187.00" departLane="-218680176#1_0" departPos="5.10" departSpeed="0.00" departDelay="0.65" arrival="274.00" arrivalLane="210831347#0_0" arrivalPos="149.88" arrivalSpeed="14.19" duration="87.00" routeLength="560.58" waitingTime="34.00" waitingCount="1" stopTime="0.00" timeLoss="49.01" rerouteNo="0" devices="tripinfo_88" vType="DEFAULT_VEHTYPE" speedFactor="1.11" vaporized=""/>
    <tripinfo id="74" depart="157.00" departLane="-226276377#1_0" departPos="5.10" departSpeed="0.00" departDelay="0.29" arrival="279.00" arrivalLane="210831345#1_0" arrivalPos="264.29" arrivalSpeed="14.84" duration="122.00" routeLength="977.93" waitingTime="48.00" waitingCount="1" stopTime="0.00" timeLoss="60.76" rerouteNo="0" devices="tripinfo_74" vType="DEFAULT_VEHTYPE" speedFactor="1.12" vaporized=""/>
    <tripinfo id="77" depart="164.00" departLane="-226276377#1_0" departPos="5.10" departSpeed="0.00" departDelay="0.94" arrival="286.00" arrivalLane="210831345#1_0" arrivalPos="264.29" arrivalSpeed="12.13" duration="122.00" routeLength="977.93" waitingTime="33.00" waitingCount="1" stopTime="0.00" timeLoss="46.60" rerouteNo="0" devices="tripinfo_77" vType="DEFAULT_VEHTYPE" speedFactor="0.90" vaporized=""/>
    <tripinfo id="95" depart="202.00" departLane="-661251539_0" departPos="5.10" departSpeed="0.00" departDelay="0.82" arrival="286.00" arrivalLane="210831345#1_1" arrivalPos="264.29" arrivalSpeed="14.16" duration="84.00" routeLength="826.64" waitingTime="6.00" waitingCount="1" stopTime="0.00" timeLoss="24.88" rerouteNo="0" devices="tripinfo_95" vType="DEFAULT_VEHTYPE" speedFactor="1.03" vaporized=""/>
    <tripinfo id="115" depart="244.00" departLane="-218680176#1_0" departPos="5.10" departSpeed="0.00" departDelay="0.47" arrival="287.00" arrivalLane="153964138#0_1" arrivalPos="337.99" arrivalSpeed="12.45" duration="43.00" routeLength="462.27" waitingTime="0.00" waitingCount="0" stopTime="0.00" timeLoss="4.86" rerouteNo="0" devices="tripinfo_115" vType="DEFAULT_VEHTYPE" speedFactor="0.79" vaporized=""/>
    <tripinfo id="5" depart="11.00" departLane="-226276377#1_0" departPos="5.10" departSpeed="0.00" departDelay="0.41" arrival="294.00" arrivalLane="218680176#0_1" arrivalPos="98.94" arrivalSpeed="11.99" duration="283.00" routeLength="1158.55" waitingTime="178.00" waitingCount="2" stopTime="0.00" timeLoss="194.59" rerouteNo="0" devices="tripinfo_5" vType="DEFAULT_VEHTYPE" speedFactor="0.91" vaporized=""/>
    <tripinfo id="91" depart="193.00" departLane="E8_0" departPos="5.10" departSpeed="0.00" departDelay="0.29" arrival="296.00" arrivalLane="-256961141#1_0" arrivalPos="204.72" arrivalSpeed="13.57" duration="103.00" routeLength="832.89" waitingTime="30.00" waitingCount="1" stopTime="0.00" timeLoss="41.12" rerouteNo="0" devices="tripinfo_91" vType="DEFAULT_VEHTYPE" speedFactor="0.98" vaporized=""/>
    <tripinfo id="76" depart="161.00" departLane="-661251539_0" departPos="5.10" departSpeed="0.00" departDelay="0.06" arrival="298.00" arrivalLane="218680176#0_1" arrivalPos="98.94" arrivalSpeed="11.27" duration="137.00" routeLength="1001.21" waitingTime="33.00" waitingCount="2" stopTime="0.00" timeLoss="51.42" rerouteNo="0" devices="tripinfo_76" vType="DEFAULT_VEHTYPE" speedFactor="0.86" vaporized=""/>
    <tripinfo id="64" depart="136.00" departLane="978867529_0" departPos="5.10" departSpeed="0.00" departDelay="0.47" arrival="300.00" arrivalLane="39907424_0" arrivalPos="316.44" arrivalSpeed="14.13" duration="164.00" routeLength="1216.15" waitingTime="62.00" waitingCount="1" stopTime="0.00" timeLoss="84.37" rerouteNo="0" devices="tripinfo_64" vType="DEFAULT_VEHTYPE" speedFactor="1.03" vaporized=""/>
    <tripinfo id="89" depart="189.00" departLane="-661251539_0" departPos="5.10" departSpeed="0.00" departDelay="0.53" arrival="300.00" arrivalLane="218680176#0_1" arrivalPos="98.94" arrivalSpeed="13.80" duration="111.00" routeLength="1001.21" waitingTime="19.00" waitingCount="1" stopTime="0.00" timeLoss="49.77" rerouteNo="0" devices="tripinfo_89" vType="DEFAULT_VEHTYPE" speedFactor="1.21" vaporized=""/>
    <tripinfo id="43" depart="92.00" departLane="E8_0" departPos="5.10" departSpeed="0.00" departDelay="0.94" arrival="301.00" arrivalLane="218680176#0_1" arrivalPos="98.94" arrivalSpeed="13.64" duration="209.00" routeLength="1637.20" waitingTime="62.00" waitingCount="2" stopTime="0.00" timeLoss="94.48" rerouteNo="0" devices="tripinfo_43" vType="DEFAULT_VEHTYPE" speedFactor="1.00" vaporized=""/>
    <tripinfo id="38" depart="81.00" departLane="E8_0" departPos="5.10" departSpeed="0.00" departDelay="0.53" arrival="303.00" arrivalLane="218680176#0_1" arrivalPos="98.94" arrivalSpeed="14.27" duration="222.00" routeLength="1637.20" waitingTime="83.00" waitingCount="2" stopTime="0.00" timeLoss="117.11" rerouteNo="0" devices="tripinfo_38" vType="DEFAULT_VEHTYPE" speedFactor="1.09" vaporized=""/>
    <tripinfo id="48" depart="102.00" departLane="E8_0" departPos="5.10" departSpeed="0.00" departDelay="0.35" arrival="305.00" arrivalLane="218680176#0_1" arrivalPos="98.94" arrivalSpeed="14.80" duration="203.00" routeLength="1637.20" waitingTime="59.00" waitingCount="3" stopTime="0.00" timeLoss="97.42" rerouteNo="0" devices="tripinfo_48" vType="DEFAULT_VEHTYPE" speedFactor="1.09" vaporized=""/>
    <tripinfo id="94" depart="200.00" departLane="-226276377#1_0" departPos="5.10" departSpeed="0.00" departDelay="0.94" arrival="306.00" arrivalLane="218680176#0_1" arrivalPos="98.94" arrivalSpeed="14.39" duration="106.00" routeLength="1158.55" waitingTime="12.00" waitingCount="1" stopTime="0.00" timeLoss="30.97" rerouteNo="0" devices="tripinfo_94" vType="DEFAULT_VEHTYPE" speedFactor="1.07" vaporized=""/>
    <tripinfo id="14" depart="30.00" departLane="978867529_0" departPos="5.10" departSpeed="0.00" departDelay="0.35" arrival="313.00" arrivalLane="226276377#0_0" arrivalPos="135.52" arrivalSpeed="11.86" duration="283.00" routeLength="1369.55" waitingTime="161.00" waitingCount="2" stopTime="0.00" timeLoss="179.75" rerouteNo="0" devices="tripinfo_14" vType="DEFAULT_VEHTYPE" speedFactor="0.87" vaporized=""/>
    <tripinfo id="104" depart="222.00" departLane="-661251539_0" departPos="5.10" departSpeed="0.00" departDelay="1.76" arrival="319.00" arrivalLane="450554042#0_0" arrivalPos="622.66" arrivalSpeed="16.91" duration="97.00" routeLength="1282.13" waitingTime="5.00" waitingCount="1" stopTime="0.00" timeLoss="20.57" rerouteNo="0" devices="tripinfo_104" vType="DEFAULT_VEHTYPE" speedFactor="1.07" vaporized=""/>
    <tripinfo id="117" depart="248.00" departLane="-231177697#2_0" departPos="5.10" departSpeed="0.00" departDelay="0.24" arrival="323.00" arrivalLane="153964138#0_0" arrivalPos="337.99" arrivalSpeed="16.04" duration="75.00" routeLength="417.38" waitingTime="38.00" waitingCount="1" stopTime="0.00" timeLoss="47.23" rerouteNo="0" devices="tripinfo_117" vType="DEFAULT_VEHTYPE" speedFactor="0.97" vaporized=""/>
    <tripinfo id="99" depart="210.00" departLane="E8_0" departPos="5.10" departSpeed="0.00" departDelay="0.35" arrival="329.00" arrivalLane="39907424_0" arrivalPos="316.44" arrivalSpeed="13.33" duration="119.00" routeLength="1303.68" waitingTime="16.00" waitingCount="1" stopTime="0.00" timeLoss="30.03" rerouteNo="0" devices="tripinfo_99" vType="DEFAULT_VEHTYPE" speedFactor="1.02" vaporized=""/>
    <tripinfo id="128" depart="272.00" departLane="-218680176#1_0" departPos="5.10" departSpeed="0.00" departDelay="0.94" arrival="332.00" arrivalLane="153964138#0_1" arrivalPos="337.99" arrivalSpeed="14.06" duration="60.00" routeLength="462.27" waitingTime="16.00" waitingCount="1" stopTime="0.00" timeLoss="26.49" rerouteNo="0" devices="tripinfo_128" vType="DEFAULT_VEHTYPE" speedFactor="0.90" vaporized=""/>
    <tripinfo id="90" depart="191.00" departLane="666135205#0_0" departPos="5.10" departSpeed="0.00" departDelay="0.41" arrival="339.00" arrivalLane="231177697#0_0" arrivalPos="74.44" arrivalSpeed="14.16" duration="148.00" routeLength="649.17" waitingTime="88.00" waitingCount="1" stopTime="0.00" timeLoss="103.85" rerouteNo="0" devices="tripinfo_90" vType="DEFAULT_VEHTYPE" speedFactor="1.08" vaporized=""/>
    <tripinfo id="141" depart="299.00" departLane="65746828#0_0" departPos="5.10" departSpeed="0.00" departDelay="0.41" arrival="341.00" arrivalLane="210831345#1_0" arrivalPos="264.29" arrivalSpeed="12.22" duration="42.00" routeLength="446.75" waitingTime="0.00" waitingCount="0" stopTime="0.00" timeLoss="5.53" rerouteNo="0" devices="tripinfo_141" vType="DEFAULT_VEHTYPE" speedFactor="0.90" vaporized=""/>
    <tripinfo id="121" depart="257.00" departLane="256961141#0_0" departPos="5.10" departSpeed="0.00" departDelay="0.76" arrival="342.00" arrivalLane="450554042#0_1" arrivalPos="622.66" arrivalSpeed="18.74" duration="85.00" routeLength="853.74" waitingTime="26.00" waitingCount="1" stopTime="0.00" timeLoss="37.12" rerouteNo="0" devices="tripinfo_121" vType="DEFAULT_VEHTYPE" speedFactor="1.15" vaporized=""/>
    <tripinfo id="108" depart="229.00" departLane="65746828#0_0" departPos="5.10" departSpeed="0.00" departDelay="0.29" arrival="343.00" arrivalLane="231177697#0_0" arrivalPos="74.44" arrivalSpeed="14.04" duration="114.00" routeLength="558.79" waitingTime="61.00" waitingCount="1" stopTime="0.00" timeLoss="72.85" rerouteNo="0" devices="tripinfo_108" vType="DEFAULT_VEHTYPE" speedFactor="1.03" vaporized=""/>
    <tripinfo id="28" depart="60.00" departLane="-226276377#1_0" departPos="5.10" departSpeed="0.00" departDelay="0.71" arrival="344.00" arrivalLane="231177697#0_0" arrivalPos="74.44" arrivalSpeed="16.22" duration="284.00" routeLength="1114.63" waitingTime="188.00" waitingCount="3" stopTime="0.00" timeLoss="218.87" rerouteNo="0" devices="tripinfo_28" vType="DEFAULT_VEHTYPE" speedFactor="1.19" vaporized=""/>
    <tripinfo id="29" depart="63.00" departLane="-226276377#1_0" departPos="5.10" departSpeed="0.00" departDelay="1.59" arrival="344.00" arrivalLane="210831347#0_1" arrivalPos="149.88" arrivalSpeed="12.97" duration="281.00" routeLength="888.52" waitingTime="202.00" waitingCount="2" stopTime="0.00" timeLoss="220.30" rerouteNo="0" devices="tripinfo_29" vType="DEFAULT_VEHTYPE" speedFactor="1.00" vaporized=""/>
    <tripinfo id="53" depart="113.00" departLane="-226276377#1_0" departPos="5.10" departSpeed="0.00" departDelay="0.76" arrival="346.00" arrivalLane="210831347#0_1" arrivalPos="149.88" arrivalSpeed="13.44" duration="233.00" routeLength="888.52" waitingTime="153.00" waitingCount="2" stopTime="0.00" timeLoss="174.31" rerouteNo="0" devices="tripinfo_53" vType="DEFAULT_VEHTYPE" speedFactor="1.04" vaporized=""/>
    <tripinfo id="116" depart="246.00" departLane="65746828#0_0" departPos="5.10" departSpeed="0.00" departDelay="0.35" arrival="347.00" arrivalLane="231177697#0_0" arrivalPos="74.44" arrivalSpeed="14.85" duration="101.00" routeLength="558.79" waitingTime="42.00" waitingCount="2" stopTime="0.00" timeLoss="62.17" rerouteNo="0" devices="tripinfo_116" vType="DEFAULT_VEHTYPE" speedFactor="1.08" vaporized=""/>
    <tripinfo id="12" depart="26.00" departLane="E8_0" departPos="5.10" departSpeed="0.00" departDelay="0.59" arrival="348.00" arrivalLane="210831347#0_1" arrivalPos="149.88" arrivalSpeed="14.41" duration="322.00" routeLength="1367.17" waitingTime="211.00" waitingCount="2" stopTime="0.00" timeLoss="231.77" rerouteNo="0" devices="tripinfo_12" vType="DEFAULT_VEHTYPE" speedFactor="1.05" vaporized=""/>
    <tripinfo id="146" depart="310.00" departLane="65746828#0_0" departPos="5.10" departSpeed="0.00" departDelay="0.82" arrival="348.00" arrivalLane="210831345#1_0" arrivalPos="264.29" arrivalSpeed="12.42" duration="38.00" routeLength="446.75" waitingTime="0.00" waitingCount="0" stopTime="0.00" timeLoss="4.35" rerouteNo="0" devices="tripinfo_146" vType="DEFAULT_VEHTYPE" speedFactor="0.96" vaporized=""/>
    <tripinfo id="56" depart="119.00" departLane="256961141#0_0" departPos="5.10" departSpeed="0.00" departDelay="0.41" arrival="351.00" arrivalLane="153964138#0_1" arrivalPos="337.99" arrivalSpeed="18.82" duration="232.00" routeLength="1439.25" waitingTime="120.00" waitingCount="3" stopTime="0.00" timeLoss="147.73" rerouteNo="0" devices="tripinfo_56" vType="DEFAULT_VEHTYPE" speedFactor="1.15" vaporized=""/>
    <tripinfo id="1" depart="3.00" departLane="-231177697#2_0" departPos="5.10" departSpeed="0.00" departDelay="0.88" arrival="352.00" arrivalLane="210831345#1_1" arrivalPos="264.29" arrivalSpeed="13.39" duration="349.00" routeLength="696.92" waitingTime="290.00" waitingCount="1" stopTime="0.00" timeLoss="299.57" rerouteNo="0" devices="tripinfo_1" vType="DEFAULT_VEHTYPE" speedFactor="1.03" vaporized=""/>
    <tripinfo id="69" depart="147.00" departLane="666135205#0_0" departPos="5.10" departSpeed="0.00" departDelay="0.88" arrival="352.00" arrivalLane="153964138#0_0" arrivalPos="337.99" arrivalSpeed="16.92" duration="205.00" routeLength="924.87" waitingTime="129.00" waitingCount="2" stopTime="0.00" timeLoss="146.46" rerouteNo="0" devices="tripinfo_69" vType="DEFAULT_VEHTYPE" speedFactor="1.09" vaporized=""/>