<?xml version="1.0" encoding="UTF-8"?>

<!-- generated on 2024-08-31 19:18:45 by Eclipse SUMO sumo Version 1.20.0
<configuration xmlns:xsi="http://www.w3.org/2001/XMLSchema-instance" xsi:noNamespaceSchemaLocation="http://sumo.dlr.de/xsd/sumoConfiguration.xsd">

    <input>
        <net-file value="c:\self\School\Master\Disertation\code\RESCO\resco_benchmark\environments/romana/osm.net.xml.gz"/>
        <route-files value="c:\self\School\Master\Disertation\code\RESCO\resco_benchmark\environments/romana/osm.passenger.trips.xml"/>
        <additional-files value="c:\self\School\Master\Disertation\code\RESCO\resco_benchmark\environments/romana/osm.poly.xml.gz"/>
    </input>

    <output>
        <tripinfo-output value="C:\self\School\Master\Disertation\code\RESCO\results\MPLight-tr0-romana-0-mplight-pressure\tripinfo_60.xml"/>
        <tripinfo-output.write-unfinished value="true"/>
    </output>

    <processing>
        <ignore-route-errors value="true"/>
        <time-to-teleport value="-1"/>
    </processing>

    <routing>
        <device.rerouting.adaptation-steps value="18"/>
        <device.rerouting.adaptation-interval value="10"/>
    </routing>

    <report>
        <verbose value="true"/>
        <no-warnings value="True"/>
        <duration-log.statistics value="true"/>
        <no-step-log value="True"/>
    </report>

    <traci_server>
        <remote-port value="58677"/>
    </traci_server>

    <random_number>
        <random value="true"/>
    </random_number>

    <gui_only>
        <gui-settings-file value="c:\self\School\Master\Disertation\code\RESCO\resco_benchmark\environments/romana/osm.view.xml"/>
    </gui_only>

</configuration>
-->

<tripinfos xmlns:xsi="http://www.w3.org/2001/XMLSchema-instance" xsi:noNamespaceSchemaLocation="http://sumo.dlr.de/xsd/tripinfo_file.xsd">
    <tripinfo id="1" depart="4.00" departLane="232079775#2_0" departPos="5.10" departSpeed="0.00" departDelay="0.40" arrival="38.00" arrivalLane="119238385#0_0" arrivalPos="144.87" arrivalSpeed="12.68" duration="34.00" routeLength="347.78" waitingTime="0.00" waitingCount="0" stopTime="0.00" timeLoss="6.21" rerouteNo="0" devices="tripinfo_1" vType="DEFAULT_VEHTYPE" speedFactor="0.92" vaporized=""/>
    <tripinfo id="0" depart="0.00" departLane="448266581#0_0" departPos="5.10" departSpeed="0.00" departDelay="0.00" arrival="46.00" arrivalLane="119238380#0_0" arrivalPos="135.86" arrivalSpeed="12.27" duration="46.00" routeLength="354.71" waitingTime="11.00" waitingCount="1" stopTime="0.00" timeLoss="19.79" rerouteNo="0" devices="tripinfo_0" vType="DEFAULT_VEHTYPE" speedFactor="0.92" vaporized=""/>
    <tripinfo id="3" depart="11.00" departLane="668307639#0_0" departPos="5.10" departSpeed="0.00" departDelay="0.20" arrival="71.00" arrivalLane="119238380#0_0" arrivalPos="135.86" arrivalSpeed="12.28" duration="60.00" routeLength="495.44" waitingTime="10.00" waitingCount="1" stopTime="0.00" timeLoss="22.89" rerouteNo="0" devices="tripinfo_3" vType="DEFAULT_VEHTYPE" speedFactor="0.91" vaporized=""/>
    <tripinfo id="2" depart="8.00" departLane="448266581#0_0" departPos="5.10" departSpeed="0.00" departDelay="0.80" arrival="73.00" arrivalLane="778823268#0_0" arrivalPos="238.22" arrivalSpeed="14.41" duration="65.00" routeLength="547.37" waitingTime="7.00" waitingCount="2" stopTime="0.00" timeLoss="27.26" rerouteNo="0" devices="tripinfo_2" vType="DEFAULT_VEHTYPE" speedFactor="1.06" vaporized=""/>
    <tripinfo id="4" depart="15.00" departLane="232079775#2_0" departPos="5.10" departSpeed="0.00" departDelay="0.60" arrival="75.00" arrivalLane="119238380#0_0" arrivalPos="135.86" arrivalSpeed="12.76" duration="60.00" routeLength="467.31" waitingTime="10.00" waitingCount="1" stopTime="0.00" timeLoss="24.60" rerouteNo="0" devices="tripinfo_4" vType="DEFAULT_VEHTYPE" speedFactor="0.97" vaporized=""/>
    <tripinfo id="9" depart="33.00" departLane="668307639#0_0" departPos="5.10" departSpeed="0.00" departDelay="0.60" arrival="77.00" arrivalLane="119238380#0_0" arrivalPos="135.86" arrivalSpeed="15.55" duration="44.00" routeLength="495.44" waitingTime="2.00" waitingCount="1" stopTime="0.00" timeLoss="13.26" rerouteNo="0" devices="tripinfo_9" vType="DEFAULT_VEHTYPE" speedFactor="1.12" vaporized=""/>
    <tripinfo id="10" depart="36.00" departLane="668307639#0_0" departPos="5.10" departSpeed="0.00" departDelay="0.00" arrival="79.00" arrivalLane="778823268#0_0" arrivalPos="238.22" arrivalSpeed="13.62" duration="43.00" routeLength="503.37" waitingTime="0.00" waitingCount="0" stopTime="0.00" timeLoss="8.34" rerouteNo="0" devices="tripinfo_10" vType="DEFAULT_VEHTYPE" speedFactor="0.98" vaporized=""/>
    <tripinfo id="6" depart="22.00" departLane="-778823268#1_0" departPos="5.10" departSpeed="0.00" departDelay="0.40" arrival="80.00" arrivalLane="119238385#0_0" arrivalPos="144.87" arrivalSpeed="12.28" duration="58.00" routeLength="522.97" waitingTime="4.00" waitingCount="1" stopTime="0.00" timeLoss="14.93" rerouteNo="0" devices="tripinfo_6" vType="DEFAULT_VEHTYPE" speedFactor="0.91" vaporized=""/>
    <tripinfo id="13" depart="47.00" departLane="-778823268#1_0" departPos="5.10" departSpeed="0.00" departDelay="0.20" arrival="89.00" arrivalLane="119238380#0_0" arrivalPos="135.86" arrivalSpeed="12.68" duration="42.00" routeLength="461.48" waitingTime="0.00" waitingCount="0" stopTime="0.00" timeLoss="5.92" rerouteNo="0" devices="tripinfo_13" vType="DEFAULT_VEHTYPE" speedFactor="0.95" vaporized=""/>
    <tripinfo id="8" depart="29.00" departLane="-778823268#1_0" departPos="5.10" departSpeed="0.00" departDelay="0.20" arrival="97.00" arrivalLane="668307633#3_2" arrivalPos="112.63" arrivalSpeed="18.17" duration="68.00" routeLength="595.69" waitingTime="14.00" waitingCount="2" stopTime="0.00" timeLoss="30.97" rerouteNo="0" devices="tripinfo_8" vType="DEFAULT_VEHTYPE" speedFactor="1.11" vaporized=""/>
    <tripinfo id="5" depart="18.00" departLane="-778823268#1_0" departPos="5.10" departSpeed="0.00" departDelay="0.00" arrival="98.00" arrivalLane="668307633#3_1" arrivalPos="112.63" arrivalSpeed="16.02" duration="80.00" routeLength="595.69" waitingTime="22.00" waitingCount="2" stopTime="0.00" timeLoss="38.34" rerouteNo="0" devices="tripinfo_5" vType="DEFAULT_VEHTYPE" speedFactor="0.98" vaporized=""/>
    <tripinfo id="7" depart="26.00" departLane="448266581#0_0" departPos="5.10" departSpeed="0.00" departDelay="0.80" arrival="98.00" arrivalLane="668307633#3_0" arrivalPos="112.63" arrivalSpeed="14.90" duration="72.00" routeLength="489.91" waitingTime="30.00" waitingCount="1" stopTime="0.00" timeLoss="40.79" rerouteNo="0" devices="tripinfo_7" vType="DEFAULT_VEHTYPE" speedFactor="0.95" vaporized=""/>
    <tripinfo id="11" depart="40.00" departLane="232079775#2_0" departPos="5.10" departSpeed="0.00" departDelay="0.40" arrival="100.00" arrivalLane="119238380#0_0" arrivalPos="135.86" arrivalSpeed="11.47" duration="60.00" routeLength="467.31" waitingTime="9.00" waitingCount="1" stopTime="0.00" timeLoss="20.62" rerouteNo="0" devices="tripinfo_11" vType="DEFAULT_VEHTYPE" speedFactor="0.88" vaporized=""/>
    <tripinfo id="15" depart="54.00" departLane="668307639#0_0" departPos="5.10" departSpeed="0.00" departDelay="0.00" arrival="100.00" arrivalLane="778823268#0_0" arrivalPos="238.22" arrivalSpeed="13.57" duration="46.00" routeLength="503.37" waitingTime="2.00" waitingCount="1" stopTime="0.00" timeLoss="13.58" rerouteNo="0" devices="tripinfo_15" vType="DEFAULT_VEHTYPE" speedFactor="1.07" vaporized=""/>
    <tripinfo id="14" depart="51.00" departLane="668307639#0_0" departPos="5.10" departSpeed="0.00" departDelay="0.60" arrival="102.00" arrivalLane="668307633#3_1" arrivalPos="112.63" arrivalSpeed="15.24" duration="51.00" routeLength="623.09" waitingTime="0.00" waitingCount="0" stopTime="0.00" timeLoss="8.71" rerouteNo="0" devices="tripinfo_14" vType="DEFAULT_VEHTYPE" speedFactor="0.96" vaporized=""/>
    <tripinfo id="17" depart="62.00" departLane="232079775#2_0" departPos="5.10" departSpeed="0.00" departDelay="0.80" arrival="103.00" arrivalLane="668307633#3_0" arrivalPos="112.63" arrivalSpeed="14.88" duration="41.00" routeLength="455.41" waitingTime="0.00" waitingCount="0" stopTime="0.00" timeLoss="8.12" rerouteNo="0" devices="tripinfo_17" vType="DEFAULT_VEHTYPE" speedFactor="0.94" vaporized=""/>
    <tripinfo id="12" depart="44.00" departLane="668307639#0_0" departPos="5.10" departSpeed="0.00" departDelay="0.80" arrival="119.00" arrivalLane="44499684#3_0" arrivalPos="84.04" arrivalSpeed="14.64" duration="75.00" routeLength="485.82" waitingTime="32.00" waitingCount="1" stopTime="0.00" timeLoss="42.92" rerouteNo="0" devices="tripinfo_12" vType="DEFAULT_VEHTYPE" speedFactor="0.94" vaporized=""/>
    <tripinfo id="20" depart="72.00" departLane="448266581#0_0" departPos="5.10" departSpeed="0.00" departDelay="0.00" arrival="122.00" arrivalLane="119238380#0_0" arrivalPos="135.86" arrivalSpeed="13.49" duration="50.00" routeLength="356.22" waitingTime="15.00" waitingCount="1" stopTime="0.00" timeLoss="26.79" rerouteNo="0" devices="tripinfo_20" vType="DEFAULT_VEHTYPE" speedFactor="1.06" vaporized=""/>
    <tripinfo id="16" depart="58.00" departLane="448266581#0_0" departPos="5.10" departSpeed="0.00" departDelay="0.40" arrival="136.00" arrivalLane="E1_1" arrivalPos="103.00" arrivalSpeed="14.93" duration="78.00" routeLength="446.50" waitingTime="31.00" waitingCount="2" stopTime="0.00" timeLoss="48.49" rerouteNo="0" devices="tripinfo_16" vType="DEFAULT_VEHTYPE" speedFactor="1.09" vaporized=""/>
    <tripinfo id="25" depart="90.00" departLane="232079775#2_0" departPos="5.10" departSpeed="0.00" departDelay="0.00" arrival="136.00" arrivalLane="119238385#0_0" arrivalPos="144.87" arrivalSpeed="10.22" duration="46.00" routeLength="347.78" waitingTime="7.00" waitingCount="1" stopTime="0.00" timeLoss="14.94" rerouteNo="0" devices="tripinfo_25" vType="DEFAULT_VEHTYPE" speedFactor="0.82" vaporized=""/>
    <tripinfo id="24" depart="87.00" departLane="448266581#0_0" departPos="5.10" departSpeed="0.00" departDelay="0.60" arrival="141.00" arrivalLane="44499684#3_2" arrivalPos="84.04" arrivalSpeed="13.23" duration="54.00" routeLength="508.78" waitingTime="0.00" waitingCount="0" stopTime="0.00" timeLoss="11.10" rerouteNo="0" devices="tripinfo_24" vType="DEFAULT_VEHTYPE" speedFactor="0.81" vaporized=""/>
    <tripinfo id="26" depart="94.00" departLane="232079775#2_0" departPos="5.10" departSpeed="0.00" departDelay="0.40" arrival="143.00" arrivalLane="E1_1" arrivalPos="103.00" arrivalSpeed="13.92" duration="49.00" routeLength="382.90" waitingTime="5.00" waitingCount="1" stopTime="0.00" timeLoss="20.78" rerouteNo="0" devices="tripinfo_26" vType="DEFAULT_VEHTYPE" speedFactor="1.01" vaporized=""/>
    <tripinfo id="19" depart="69.00" departLane="668307639#0_0" departPos="5.10" departSpeed="0.00" departDelay="0.60" arrival="146.00" arrivalLane="668307633#3_1" arrivalPos="112.63" arrivalSpeed="17.42" duration="77.00" routeLength="625.14" waitingTime="21.00" waitingCount="1" stopTime="0.00" timeLoss="40.66" rerouteNo="0" devices="tripinfo_19" vType="DEFAULT_VEHTYPE" speedFactor="1.12" vaporized=""/>
    <tripinfo id="29" depart="105.00" departLane="-778823268#1_0" departPos="5.10" departSpeed="0.00" departDelay="0.60" arrival="146.00" arrivalLane="44499684#3_0" arrivalPos="84.04" arrivalSpeed="14.78" duration="41.00" routeLength="453.00" waitingTime="0.00" waitingCount="0" stopTime="0.00" timeLoss="5.95" rerouteNo="0" devices="tripinfo_29" vType="DEFAULT_VEHTYPE" speedFactor="0.89" vaporized=""/>
    <tripinfo id="18" depart="65.00" departLane="668307639#0_0" departPos="5.10" departSpeed="0.00" departDelay="0.20" arrival="147.00" arrivalLane="668307633#3_0" arrivalPos="112.63" arrivalSpeed="16.85" duration="82.00" routeLength="623.09" waitingTime="27.00" waitingCount="1" stopTime="0.00" timeLoss="44.19" rerouteNo="0" devices="tripinfo_18" vType="DEFAULT_VEHTYPE" speedFactor="1.07" vaporized=""/>
    <tripinfo id="27" depart="98.00" departLane="448266581#0_0" departPos="5.10" departSpeed="0.00" departDelay="0.80" arrival="149.00" arrivalLane="668307633#3_0" arrivalPos="112.63" arrivalSpeed="17.95" duration="51.00" routeLength="489.91" waitingTime="10.00" waitingCount="1" stopTime="0.00" timeLoss="23.16" rerouteNo="0" devices="tripinfo_27" vType="DEFAULT_VEHTYPE" speedFactor="1.09" vaporized=""/>
    <tripinfo id="34" depart="123.00" departLane="232079775#2_0" departPos="5.10" departSpeed="0.00" departDelay="0.60" arrival="157.00" arrivalLane="119238385#0_0" arrivalPos="144.87" arrivalSpeed="11.27" duration="34.00" routeLength="347.78" waitingTime="0.00" waitingCount="0" stopTime="0.00" timeLoss="5.80" rerouteNo="0" devices="tripinfo_34" vType="DEFAULT_VEHTYPE" speedFactor="0.90" vaporized=""/>
    <tripinfo id="32" depart="116.00" departLane="668307639#0_0" departPos="5.10" departSpeed="0.00" departDelay="0.80" arrival="160.00" arrivalLane="778823268#0_0" arrivalPos="238.22" arrivalSpeed="12.37" duration="44.00" routeLength="503.37" waitingTime="0.00" waitingCount="0" stopTime="0.00" timeLoss="8.68" rerouteNo="0" devices="tripinfo_32" vType="DEFAULT_VEHTYPE" speedFactor="0.97" vaporized=""/>
    <tripinfo id="35" depart="126.00" departLane="-778823268#1_0" departPos="5.10" departSpeed="0.00" departDelay="0.00" arrival="170.00" arrivalLane="E1_0" arrivalPos="103.00" arrivalSpeed="13.95" duration="44.00" routeLength="369.88" waitingTime="6.00" waitingCount="1" stopTime="0.00" timeLoss="17.79" rerouteNo="0" devices="tripinfo_35" vType="DEFAULT_VEHTYPE" speedFactor="1.04" vaporized=""/>
    <tripinfo id="21" depart="76.00" departLane="-778823268#1_0" departPos="5.10" departSpeed="0.00" departDelay="0.40" arrival="177.00" arrivalLane="119238385#0_0" arrivalPos="144.87" arrivalSpeed="12.25" duration="101.00" routeLength="522.97" waitingTime="47.00" waitingCount="1" stopTime="0.00" timeLoss="59.22" rerouteNo="0" devices="tripinfo_21" vType="DEFAULT_VEHTYPE" speedFactor="0.93" vaporized=""/>
    <tripinfo id="22" depart="80.00" departLane="-778823268#1_0" departPos="5.10" departSpeed="0.00" departDelay="0.80" arrival="179.00" arrivalLane="119238385#0_0" arrivalPos="144.87" arrivalSpeed="15.36" duration="99.00" routeLength="522.97" waitingTime="46.00" waitingCount="1" stopTime="0.00" timeLoss="63.73" rerouteNo="0" devices="tripinfo_22" vType="DEFAULT_VEHTYPE" speedFactor="1.12" vaporized=""/>
    <tripinfo id="33" depart="119.00" departLane="-778823268#1_0" departPos="5.10" departSpeed="0.00" departDelay="0.20" arrival="179.00" arrivalLane="119238380#0_0" arrivalPos="135.86" arrivalSpeed="11.18" duration="60.00" routeLength="461.48" waitingTime="11.00" waitingCount="1" stopTime="0.00" timeLoss="20.38" rerouteNo="0" devices="tripinfo_33" vType="DEFAULT_VEHTYPE" speedFactor="0.86" vaporized=""/>
    <tripinfo id="23" depart="83.00" departLane="-778823268#1_0" departPos="5.10" departSpeed="0.00" departDelay="0.20" arrival="181.00" arrivalLane="119238385#0_0" arrivalPos="144.87" arrivalSpeed="12.82" duration="98.00" routeLength="522.97" waitingTime="45.00" waitingCount="1" stopTime="0.00" timeLoss="56.90" rerouteNo="0" devices="tripinfo_23" vType="DEFAULT_VEHTYPE" speedFactor="0.95" vaporized=""/>
    <tripinfo id="31" depart="112.00" departLane="448266581#0_0" departPos="5.10" departSpeed="0.00" departDelay="0.40" arrival="182.00" arrivalLane="778823268#0_0" arrivalPos="238.22" arrivalSpeed="11.43" duration="70.00" routeLength="546.01" waitingTime="12.00" waitingCount="1" stopTime="0.00" timeLoss="26.22" rerouteNo="0" devices="tripinfo_31" vType="DEFAULT_VEHTYPE" speedFactor="0.91" vaporized=""/>
    <tripinfo id="39" depart="141.00" departLane="232079775#2_0" departPos="5.10" departSpeed="0.00" departDelay="0.60" arrival="185.00" arrivalLane="119238385#0_0" arrivalPos="144.87" arrivalSpeed="11.83" duration="44.00" routeLength="347.78" waitingTime="7.00" waitingCount="1" stopTime="0.00" timeLoss="16.73" rerouteNo="0" devices="tripinfo_39" vType="DEFAULT_VEHTYPE" speedFactor="0.94" vaporized=""/>
    <tripinfo id="28" depart="101.00" departLane="-778823268#1_0" departPos="5.10" departSpeed="0.00" departDelay="0.20" arrival="186.00" arrivalLane="778823268#0_0" arrivalPos="238.22" arrivalSpeed="14.45" duration="85.00" routeLength="655.26" waitingTime="26.00" waitingCount="1" stopTime="0.00" timeLoss="39.68" rerouteNo="0" devices="tripinfo_28" vType="DEFAULT_VEHTYPE" speedFactor="1.09" vaporized=""/>
    <tripinfo id="42" depart="152.00" departLane="232079775#2_0" departPos="5.10" departSpeed="0.00" departDelay="0.80" arrival="187.00" arrivalLane="119238385#0_0" arrivalPos="144.87" arrivalSpeed="13.95" duration="35.00" routeLength="347.78" waitingTime="0.00" waitingCount="0" stopTime="0.00" timeLoss="10.99" rerouteNo="0" devices="tripinfo_42" vType="DEFAULT_VEHTYPE" speedFactor="1.08" vaporized=""/>
    <tripinfo id="38" depart="137.00" departLane="668307639#0_0" departPos="5.10" departSpeed="0.00" departDelay="0.20" arrival="197.00" arrivalLane="44499684#3_0" arrivalPos="84.04" arrivalSpeed="14.68" duration="60.00" routeLength="485.82" waitingTime="19.00" waitingCount="1" stopTime="0.00" timeLoss="27.73" rerouteNo="0" devices="tripinfo_38" vType="DEFAULT_VEHTYPE" speedFactor="0.93" vaporized=""/>
    <tripinfo id="40" depart="144.00" departLane="448266581#0_0" departPos="5.10" departSpeed="0.00" departDelay="0.00" arrival="202.00" arrivalLane="119238385#0_0" arrivalPos="144.87" arrivalSpeed="13.89" duration="58.00" routeLength="416.20" waitingTime="17.00" waitingCount="1" stopTime="0.00" timeLoss="29.26" rerouteNo="0" devices="tripinfo_40" vType="DEFAULT_VEHTYPE" speedFactor="1.03" vaporized=""/>
    <tripinfo id="46" depart="166.00" departLane="668307639#0_0" departPos="5.10" departSpeed="0.00" departDelay="0.40" arrival="203.00" arrivalLane="44499684#3_0" arrivalPos="84.04" arrivalSpeed="15.47" duration="37.00" routeLength="485.82" waitingTime="0.00" waitingCount="0" stopTime="0.00" timeLoss="5.12" rerouteNo="0" devices="tripinfo_46" vType="DEFAULT_VEHTYPE" speedFactor="0.95" vaporized=""/>
    <tripinfo id="47" depart="170.00" departLane="-778823268#1_0" departPos="5.10" departSpeed="0.00" departDelay="0.80" arrival="211.00" arrivalLane="44499684#3_0" arrivalPos="84.04" arrivalSpeed="15.90" duration="41.00" routeLength="453.00" waitingTime="0.00" waitingCount="0" stopTime="0.00" timeLoss="8.04" rerouteNo="0" devices="tripinfo_47" vType="DEFAULT_VEHTYPE" speedFactor="0.97" vaporized=""/>
    <tripinfo id="41" depart="148.00" departLane="448266581#0_0" departPos="5.10" departSpeed="0.00" departDelay="0.40" arrival="218.00" arrivalLane="E1_1" arrivalPos="103.00" arrivalSpeed="12.08" duration="70.00" routeLength="450.17" waitingTime="15.00" waitingCount="2" stopTime="0.00" timeLoss="34.79" rerouteNo="0" devices="tripinfo_41" vType="DEFAULT_VEHTYPE" speedFactor="0.92" vaporized=""/>
    <tripinfo id="44" depart="159.00" departLane="-778823268#1_0" departPos="5.10" departSpeed="0.00" departDelay="0.60" arrival="219.00" arrivalLane="119238380#0_0" arrivalPos="135.86" arrivalSpeed="13.28" duration="60.00" routeLength="461.48" waitingTime="18.00" waitingCount="1" stopTime="0.00" timeLoss="27.57" rerouteNo="0" devices="tripinfo_44" vType="DEFAULT_VEHTYPE" speedFactor="1.04" vaporized=""/>
    <tripinfo id="49" depart="177.00" departLane="668307639#0_0" departPos="5.10" departSpeed="0.00" departDelay="0.60" arrival="228.00" arrivalLane="E1_1" arrivalPos="103.00" arrivalSpeed="12.69" duration="51.00" routeLength="411.03" waitingTime="10.00" waitingCount="2" stopTime="0.00" timeLoss="21.20" rerouteNo="0" devices="tripinfo_49" vType="DEFAULT_VEHTYPE" speedFactor="0.94" vaporized=""/>
    <tripinfo id="52" depart="188.00" departLane="232079775#2_0" departPos="5.10" departSpeed="0.00" departDelay="0.80" arrival="228.00" arrivalLane="668307633#3_0" arrivalPos="112.63" arrivalSpeed="15.07" duration="40.00" routeLength="455.41" waitingTime="0.00" waitingCount="0" stopTime="0.00" timeLoss="8.19" rerouteNo="0" devices="tripinfo_52" vType="DEFAULT_VEHTYPE" speedFactor="0.98" vaporized=""/>
    <tripinfo id="53" depart="191.00" departLane="-778823268#1_0" departPos="5.10" departSpeed="0.00" departDelay="0.20" arrival="232.00" arrivalLane="44499684#3_0" arrivalPos="84.04" arrivalSpeed="14.33" duration="41.00" routeLength="453.00" waitingTime="0.00" waitingCount="0" stopTime="0.00" timeLoss="7.22" rerouteNo="0" devices="tripinfo_53" vType="DEFAULT_VEHTYPE" speedFactor="0.92" vaporized=""/>
    <tripinfo id="36" depart="130.00" departLane="668307639#0_0" departPos="5.10" departSpeed="0.00" departDelay="0.40" arrival="233.00" arrivalLane="119238385#0_0" arrivalPos="144.87" arrivalSpeed="10.85" duration="103.00" routeLength="556.93" waitingTime="34.00" waitingCount="2" stopTime="0.00" timeLoss="54.01" rerouteNo="0" devices="tripinfo_36" vType="DEFAULT_VEHTYPE" speedFactor="0.80" vaporized=""/>
    <tripinfo id="54" depart="195.00" departLane="232079775#2_0" departPos="5.10" departSpeed="0.00" departDelay="0.60" arrival="242.00" arrivalLane="E1_1" arrivalPos="103.00" arrivalSpeed="13.02" duration="47.00" routeLength="382.90" waitingTime="3.00" waitingCount="1" stopTime="0.00" timeLoss="16.36" rerouteNo="0" devices="tripinfo_54" vType="DEFAULT_VEHTYPE" speedFactor="0.94" vaporized=""/>
    <tripinfo id="37" depart="134.00" departLane="448266581#0_0" departPos="5.10" departSpeed="0.00" departDelay="0.80" arrival="243.00" arrivalLane="44499684#3_0" arrivalPos="84.04" arrivalSpeed="15.63" duration="109.00" routeLength="512.41" waitingTime="56.00" waitingCount="3" stopTime="0.00" timeLoss="74.83" rerouteNo="0" devices="tripinfo_37" vType="DEFAULT_VEHTYPE" speedFactor="1.01" vaporized=""/>
    <tripinfo id="45" depart="162.00" departLane="-778823268#1_0" departPos="5.10" departSpeed="0.00" departDelay="0.00" arrival="245.00" arrivalLane="668307633#3_1" arrivalPos="112.63" arrivalSpeed="20.49" duration="83.00" routeLength="595.69" waitingTime="29.00" waitingCount="2" stopTime="0.00" timeLoss="50.26" rerouteNo="0" devices="tripinfo_45" vType="DEFAULT_VEHTYPE" speedFactor="1.25" vaporized=""/>
    <tripinfo id="30" depart="108.00" departLane="668307639#0_0" departPos="5.10" departSpeed="0.00" departDelay="0.00" arrival="246.00" arrivalLane="668307633#3_0" arrivalPos="112.63" arrivalSpeed="17.82" duration="138.00" routeLength="623.09" waitingTime="80.00" waitingCount="2" stopTime="0.00" timeLoss="101.54" rerouteNo="0" devices="tripinfo_30" vType="DEFAULT_VEHTYPE" speedFactor="1.10" vaporized=""/>
    <tripinfo id="57" depart="206.00" departLane="668307639#0_0" departPos="5.10" departSpeed="0.00" departDelay="0.80" arrival="246.00" arrivalLane="E1_1" arrivalPos="103.00" arrivalSpeed="13.43" duration="40.00" routeLength="411.03" waitingTime="1.00" waitingCount="1" stopTime="0.00" timeLoss="11.37" rerouteNo="0" devices="tripinfo_57" vType="DEFAULT_VEHTYPE" speedFactor="0.97" vaporized=""/>
    <tripinfo id="43" depart="155.00" departLane="668307639#0_0" departPos="5.10" departSpeed="0.00" departDelay="0.20" arrival="247.00" arrivalLane="668307633#3_2" arrivalPos="112.63" arrivalSpeed="17.03" duration="92.00" routeLength="623.09" waitingTime="28.00" waitingCount="4" stopTime="0.00" timeLoss="53.71" rerouteNo="0" devices="tripinfo_43" vType="DEFAULT_VEHTYPE" speedFactor="1.05" vaporized=""/>
    <tripinfo id="50" depart="180.00" departLane="-778823268#1_0" departPos="5.10" departSpeed="0.00" departDelay="0.00" arrival="248.00" arrivalLane="778823268#0_0" arrivalPos="238.22" arrivalSpeed="13.14" duration="68.00" routeLength="655.26" waitingTime="1.00" waitingCount="1" stopTime="0.00" timeLoss="20.94" rerouteNo="0" devices="tripinfo_50" vType="DEFAULT_VEHTYPE" speedFactor="1.04" vaporized=""/>
    <tripinfo id="59" depart="213.00" departLane="448266581#0_0" departPos="5.10" departSpeed="0.00" departDelay="0.60" arrival="248.00" arrivalLane="119238380#0_0" arrivalPos="135.86" arrivalSpeed="11.95" duration="35.00" routeLength="354.71" waitingTime="0.00" waitingCount="0" stopTime="0.00" timeLoss="9.20" rerouteNo="0" devices="tripinfo_59" vType="DEFAULT_VEHTYPE" speedFactor="0.94" vaporized=""/>
    <tripinfo id="48" depart="173.00" departLane="668307639#0_0" departPos="5.10" departSpeed="0.00" departDelay="0.20" arrival="249.00" arrivalLane="668307633#3_1" arrivalPos="112.63" arrivalSpeed="15.89" duration="76.00" routeLength="625.14" waitingTime="13.00" waitingCount="2" stopTime="0.00" timeLoss="36.06" rerouteNo="0" devices="tripinfo_48" vType="DEFAULT_VEHTYPE" speedFactor="1.02" vaporized=""/>
    <tripinfo id="58" depart="209.00" departLane="232079775#2_0" departPos="5.10" departSpeed="0.00" departDelay="0.20" arrival="252.00" arrivalLane="668307633#3_0" arrivalPos="112.63" arrivalSpeed="15.07" duration="43.00" routeLength="455.41" waitingTime="0.00" waitingCount="0" stopTime="0.00" timeLoss="10.28" rerouteNo="0" devices="tripinfo_58" vType="DEFAULT_VEHTYPE" speedFactor="0.95" vaporized=""/>
    <tripinfo id="51" depart="184.00" departLane="448266581#0_0" departPos="5.10" departSpeed="0.00" departDelay="0.40" arrival="255.00" arrivalLane="668307633#3_1" arrivalPos="112.63" arrivalSpeed="13.28" duration="71.00" routeLength="489.91" waitingTime="24.00" waitingCount="1" stopTime="0.00" timeLoss="36.47" rerouteNo="0" devices="tripinfo_51" vType="DEFAULT_VEHTYPE" speedFactor="0.87" vaporized=""/>
    <tripinfo id="56" depart="202.00" departLane="448266581#0_0" departPos="5.10" departSpeed="0.00" departDelay="0.40" arrival="256.00" arrivalLane="119238385#0_0" arrivalPos="144.87" arrivalSpeed="13.75" duration="54.00" routeLength="414.90" waitingTime="10.00" waitingCount="2" stopTime="0.00" timeLoss="24.66" rerouteNo="0" devices="tripinfo_56" vType="DEFAULT_VEHTYPE" speedFactor="1.01" vaporized=""/>
    <tripinfo id="63" depart="227.00" departLane="-778823268#1_0" departPos="5.10" departSpeed="0.00" departDelay="0.20" arrival="262.00" arrivalLane="E1_0" arrivalPos="103.00" arrivalSpeed="12.27" duration="35.00" routeLength="369.88" waitingTime="0.00" waitingCount="0" stopTime="0.00" timeLoss="5.38" rerouteNo="0" devices="tripinfo_63" vType="DEFAULT_VEHTYPE" speedFactor="0.95" vaporized=""/>
    <tripinfo id="66" depart="238.00" departLane="668307639#0_0" departPos="5.10" departSpeed="0.00" departDelay="0.40" arrival="272.00" arrivalLane="E1_1" arrivalPos="103.00" arrivalSpeed="15.79" duration="34.00" routeLength="411.03" waitingTime="0.00" waitingCount="0" stopTime="0.00" timeLoss="10.67" rerouteNo="0" devices="tripinfo_66" vType="DEFAULT_VEHTYPE" speedFactor="1.23" vaporized=""/>
    <tripinfo id="55" depart="198.00" departLane="668307639#0_0" departPos="5.10" departSpeed="0.00" departDelay="0.00" arrival="276.00" arrivalLane="119238385#0_0" arrivalPos="144.87" arrivalSpeed="12.56" duration="78.00" routeLength="556.93" waitingTime="24.00" waitingCount="1" stopTime="0.00" timeLoss="37.04" rerouteNo="0" devices="tripinfo_55" vType="DEFAULT_VEHTYPE" speedFactor="0.93" vaporized=""/>
    <tripinfo id="60" depart="216.00" departLane="668307639#0_0" departPos="5.10" departSpeed="0.00" departDelay="0.00" arrival="277.00" arrivalLane="668307633#3_1" arrivalPos="112.63" arrivalSpeed="16.15" duration="61.00" routeLength="623.09" waitingTime="6.00" waitingCount="1" stopTime="0.00" timeLoss="19.90" rerouteNo="0" devices="tripinfo_60" vType="DEFAULT_VEHTYPE" speedFactor="1.00" vaporized=""/>
    <tripinfo id="64" depart="231.00" departLane="668307639#0_0" departPos="5.10" departSpeed="0.00" departDelay="0.60" arrival="277.00" arrivalLane="778823268#0_0" arrivalPos="238.22" arrivalSpeed="12.67" duration="46.00" routeLength="503.37" waitingTime="0.00" waitingCount="0" stopTime="0.00" timeLoss="9.29" rerouteNo="0" devices="tripinfo_64" vType="DEFAULT_VEHTYPE" speedFactor="0.95" vaporized=""/>
    <tripinfo id="61" depart="220.00" departLane="668307639#0_0" departPos="5.10" departSpeed="0.00" departDelay="0.40" arrival="278.00" arrivalLane="668307633#3_1" arrivalPos="112.63" arrivalSpeed="17.66" duration="58.00" routeLength="625.14" waitingTime="3.00" waitingCount="1" stopTime="0.00" timeLoss="21.48" rerouteNo="0" devices="tripinfo_61" vType="DEFAULT_VEHTYPE" speedFactor="1.11" vaporized=""/>
    <tripinfo id="62" depart="224.00" departLane="-778823268#1_0" departPos="5.10" departSpeed="0.00" departDelay="0.80" arrival="278.00" arrivalLane="119238385#0_0" arrivalPos="144.87" arrivalSpeed="13.28" duration="54.00" routeLength="522.97" waitingTime="3.00" waitingCount="1" stopTime="0.00" timeLoss="15.18" rerouteNo="0" devices="tripinfo_62" vType="DEFAULT_VEHTYPE" speedFactor="0.99" vaporized=""/>
    <tripinfo id="67" depart="242.00" departLane="-778823268#1_0" departPos="5.10" departSpeed="0.00" departDelay="0.80" arrival="288.00" arrivalLane="44499684#3_0" arrivalPos="84.04" arrivalSpeed="13.47" duration="46.00" routeLength="453.00" waitingTime="0.00" waitingCount="0" stopTime="0.00" timeLoss="6.79" rerouteNo="0" devices="tripinfo_67" vType="DEFAULT_VEHTYPE" speedFactor="0.81" vaporized=""/>
    <tripinfo id="70" depart="252.00" departLane="232079775#2_0" departPos="5.10" departSpeed="0.00" departDelay="0.00" arrival="291.00" arrivalLane="668307633#3_0" arrivalPos="112.63" arrivalSpeed="17.31" duration="39.00" routeLength="455.41" waitingTime="0.00" waitingCount="0" stopTime="0.00" timeLoss="9.68" rerouteNo="0" devices="tripinfo_70" vType="DEFAULT_VEHTYPE" speedFactor="1.07" vaporized=""/>
    <tripinfo id="71" depart="256.00" departLane="232079775#2_0" departPos="5.10" departSpeed="0.00" departDelay="0.40" arrival="293.00" arrivalLane="E1_1" arrivalPos="103.00" arrivalSpeed="13.80" duration="37.00" routeLength="382.90" waitingTime="0.00" waitingCount="0" stopTime="0.00" timeLoss="10.27" rerouteNo="0" devices="tripinfo_71" vType="DEFAULT_VEHTYPE" speedFactor="1.05" vaporized=""/>