<?xml version="1.0" encoding="UTF-8"?>

<!-- generated on 2024-08-31 19:15:26 by Eclipse SUMO sumo Version 1.20.0
<configuration xmlns:xsi="http://www.w3.org/2001/XMLSchema-instance" xsi:noNamespaceSchemaLocation="http://sumo.dlr.de/xsd/sumoConfiguration.xsd">

    <input>
        <net-file value="c:\self\School\Master\Disertation\code\RESCO\resco_benchmark\environments/romana/osm.net.xml.gz"/>
        <route-files value="c:\self\School\Master\Disertation\code\RESCO\resco_benchmark\environments/romana/osm.passenger.trips.xml"/>
        <additional-files value="c:\self\School\Master\Disertation\code\RESCO\resco_benchmark\environments/romana/osm.poly.xml.gz"/>
    </input>

    <output>
        <tripinfo-output value="C:\self\School\Master\Disertation\code\RESCO\results\MPLight-tr0-romana-0-mplight-pressure\tripinfo_27.xml"/>
        <tripinfo-output.write-unfinished value="true"/>
    </output>

    <processing>
        <ignore-route-errors value="true"/>
        <time-to-teleport value="-1"/>
    </processing>

    <routing>
        <device.rerouting.adaptation-steps value="18"/>
        <device.rerouting.adaptation-interval value="10"/>
    </routing>

    <report>
        <verbose value="true"/>
        <no-warnings value="True"/>
        <duration-log.statistics value="true"/>
        <no-step-log value="True"/>
    </report>

    <traci_server>
        <remote-port value="58527"/>
    </traci_server>

    <random_number>
        <random value="true"/>
    </random_number>

    <gui_only>
        <gui-settings-file value="c:\self\School\Master\Disertation\code\RESCO\resco_benchmark\environments/romana/osm.view.xml"/>
    </gui_only>

</configuration>
-->

<tripinfos xmlns:xsi="http://www.w3.org/2001/XMLSchema-instance" xsi:noNamespaceSchemaLocation="http://sumo.dlr.de/xsd/tripinfo_file.xsd">
    <tripinfo id="0" depart="0.00" departLane="448266581#0_0" departPos="5.10" departSpeed="0.00" departDelay="0.00" arrival="32.00" arrivalLane="119238380#0_0" arrivalPos="135.86" arrivalSpeed="12.20" duration="32.00" routeLength="354.71" waitingTime="0.00" waitingCount="0" stopTime="0.00" timeLoss="6.66" rerouteNo="0" devices="tripinfo_0" vType="DEFAULT_VEHTYPE" speedFactor="0.97" vaporized=""/>
    <tripinfo id="1" depart="4.00" departLane="232079775#2_0" departPos="5.10" departSpeed="0.00" departDelay="0.40" arrival="35.00" arrivalLane="119238385#0_0" arrivalPos="144.87" arrivalSpeed="12.43" duration="31.00" routeLength="347.78" waitingTime="0.00" waitingCount="0" stopTime="0.00" timeLoss="5.09" rerouteNo="0" devices="tripinfo_1" vType="DEFAULT_VEHTYPE" speedFactor="0.98" vaporized=""/>
    <tripinfo id="3" depart="11.00" departLane="668307639#0_0" departPos="5.10" departSpeed="0.00" departDelay="0.20" arrival="51.00" arrivalLane="119238380#0_0" arrivalPos="135.86" arrivalSpeed="14.82" duration="40.00" routeLength="495.44" waitingTime="0.00" waitingCount="0" stopTime="0.00" timeLoss="9.20" rerouteNo="0" devices="tripinfo_3" vType="DEFAULT_VEHTYPE" speedFactor="1.12" vaporized=""/>
    <tripinfo id="6" depart="22.00" departLane="-778823268#1_0" departPos="5.10" departSpeed="0.00" departDelay="0.40" arrival="64.00" arrivalLane="119238385#0_0" arrivalPos="144.87" arrivalSpeed="14.33" duration="42.00" routeLength="522.97" waitingTime="0.00" waitingCount="0" stopTime="0.00" timeLoss="6.02" rerouteNo="0" devices="tripinfo_6" vType="DEFAULT_VEHTYPE" speedFactor="1.08" vaporized=""/>
    <tripinfo id="4" depart="15.00" departLane="232079775#2_0" departPos="5.10" departSpeed="0.00" departDelay="0.60" arrival="95.00" arrivalLane="119238380#0_0" arrivalPos="135.86" arrivalSpeed="14.00" duration="80.00" routeLength="467.31" waitingTime="28.00" waitingCount="2" stopTime="0.00" timeLoss="46.17" rerouteNo="0" devices="tripinfo_4" vType="DEFAULT_VEHTYPE" speedFactor="1.01" vaporized=""/>
    <tripinfo id="5" depart="18.00" departLane="-778823268#1_0" departPos="5.10" departSpeed="0.00" departDelay="0.00" arrival="97.00" arrivalLane="668307633#3_0" arrivalPos="112.63" arrivalSpeed="16.56" duration="79.00" routeLength="595.69" waitingTime="27.00" waitingCount="1" stopTime="0.00" timeLoss="40.13" rerouteNo="0" devices="tripinfo_5" vType="DEFAULT_VEHTYPE" speedFactor="1.03" vaporized=""/>
    <tripinfo id="7" depart="26.00" departLane="448266581#0_0" departPos="5.10" departSpeed="0.00" departDelay="0.80" arrival="97.00" arrivalLane="668307633#3_1" arrivalPos="112.63" arrivalSpeed="17.66" duration="71.00" routeLength="490.12" waitingTime="23.00" waitingCount="2" stopTime="0.00" timeLoss="43.21" rerouteNo="0" devices="tripinfo_7" vType="DEFAULT_VEHTYPE" speedFactor="1.09" vaporized=""/>
    <tripinfo id="11" depart="40.00" departLane="232079775#2_0" departPos="5.10" departSpeed="0.00" departDelay="0.40" arrival="97.00" arrivalLane="119238380#0_0" arrivalPos="135.86" arrivalSpeed="15.01" duration="57.00" routeLength="467.31" waitingTime="9.00" waitingCount="1" stopTime="0.00" timeLoss="27.08" rerouteNo="0" devices="tripinfo_11" vType="DEFAULT_VEHTYPE" speedFactor="1.16" vaporized=""/>
    <tripinfo id="13" depart="47.00" departLane="-778823268#1_0" departPos="5.10" departSpeed="0.00" departDelay="0.20" arrival="98.00" arrivalLane="119238380#0_0" arrivalPos="135.86" arrivalSpeed="15.04" duration="51.00" routeLength="461.48" waitingTime="7.00" waitingCount="1" stopTime="0.00" timeLoss="21.21" rerouteNo="0" devices="tripinfo_13" vType="DEFAULT_VEHTYPE" speedFactor="1.13" vaporized=""/>
    <tripinfo id="2" depart="8.00" departLane="448266581#0_0" departPos="5.10" departSpeed="0.00" departDelay="0.80" arrival="99.00" arrivalLane="778823268#0_0" arrivalPos="238.22" arrivalSpeed="9.06" duration="91.00" routeLength="546.01" waitingTime="25.00" waitingCount="1" stopTime="0.00" timeLoss="37.50" rerouteNo="0" devices="tripinfo_2" vType="DEFAULT_VEHTYPE" speedFactor="0.73" vaporized=""/>
    <tripinfo id="9" depart="33.00" departLane="668307639#0_0" departPos="5.10" departSpeed="0.00" departDelay="0.60" arrival="101.00" arrivalLane="119238380#0_0" arrivalPos="135.86" arrivalSpeed="15.03" duration="68.00" routeLength="497.82" waitingTime="25.00" waitingCount="2" stopTime="0.00" timeLoss="38.66" rerouteNo="0" devices="tripinfo_9" vType="DEFAULT_VEHTYPE" speedFactor="1.15" vaporized=""/>
    <tripinfo id="8" depart="29.00" departLane="-778823268#1_0" departPos="5.10" departSpeed="0.00" departDelay="0.20" arrival="102.00" arrivalLane="668307633#3_1" arrivalPos="112.63" arrivalSpeed="16.07" duration="73.00" routeLength="595.69" waitingTime="21.00" waitingCount="1" stopTime="0.00" timeLoss="31.40" rerouteNo="0" devices="tripinfo_8" vType="DEFAULT_VEHTYPE" speedFactor="0.97" vaporized=""/>
    <tripinfo id="10" depart="36.00" departLane="668307639#0_0" departPos="5.10" departSpeed="0.00" departDelay="0.00" arrival="102.00" arrivalLane="778823268#0_0" arrivalPos="238.22" arrivalSpeed="12.56" duration="66.00" routeLength="503.37" waitingTime="18.00" waitingCount="1" stopTime="0.00" timeLoss="30.21" rerouteNo="0" devices="tripinfo_10" vType="DEFAULT_VEHTYPE" speedFactor="0.97" vaporized=""/>
    <tripinfo id="17" depart="62.00" departLane="232079775#2_0" departPos="5.10" departSpeed="0.00" departDelay="0.80" arrival="107.00" arrivalLane="668307633#3_0" arrivalPos="112.63" arrivalSpeed="15.33" duration="45.00" routeLength="455.41" waitingTime="1.00" waitingCount="1" stopTime="0.00" timeLoss="11.34" rerouteNo="0" devices="tripinfo_17" vType="DEFAULT_VEHTYPE" speedFactor="0.93" vaporized=""/>
    <tripinfo id="14" depart="51.00" departLane="668307639#0_0" departPos="5.10" departSpeed="0.00" departDelay="0.60" arrival="109.00" arrivalLane="668307633#3_1" arrivalPos="112.63" arrivalSpeed="17.45" duration="58.00" routeLength="623.09" waitingTime="6.00" waitingCount="1" stopTime="0.00" timeLoss="20.13" rerouteNo="0" devices="tripinfo_14" vType="DEFAULT_VEHTYPE" speedFactor="1.09" vaporized=""/>
    <tripinfo id="15" depart="54.00" departLane="668307639#0_0" departPos="5.10" departSpeed="0.00" departDelay="0.00" arrival="109.00" arrivalLane="778823268#0_0" arrivalPos="238.22" arrivalSpeed="11.24" duration="55.00" routeLength="503.37" waitingTime="1.00" waitingCount="1" stopTime="0.00" timeLoss="13.53" rerouteNo="0" devices="tripinfo_15" vType="DEFAULT_VEHTYPE" speedFactor="0.83" vaporized=""/>
    <tripinfo id="21" depart="76.00" departLane="-778823268#1_0" departPos="5.10" departSpeed="0.00" departDelay="0.40" arrival="118.00" arrivalLane="119238385#0_0" arrivalPos="144.87" arrivalSpeed="13.99" duration="42.00" routeLength="522.97" waitingTime="0.00" waitingCount="0" stopTime="0.00" timeLoss="6.64" rerouteNo="0" devices="tripinfo_21" vType="DEFAULT_VEHTYPE" speedFactor="1.10" vaporized=""/>
    <tripinfo id="22" depart="80.00" departLane="-778823268#1_0" departPos="5.10" departSpeed="0.00" departDelay="0.80" arrival="121.00" arrivalLane="119238385#0_0" arrivalPos="144.87" arrivalSpeed="15.93" duration="41.00" routeLength="522.97" waitingTime="0.00" waitingCount="0" stopTime="0.00" timeLoss="7.79" rerouteNo="0" devices="tripinfo_22" vType="DEFAULT_VEHTYPE" speedFactor="1.17" vaporized=""/>
    <tripinfo id="18" depart="65.00" departLane="668307639#0_0" departPos="5.10" departSpeed="0.00" departDelay="0.20" arrival="123.00" arrivalLane="668307633#3_1" arrivalPos="112.63" arrivalSpeed="15.94" duration="58.00" routeLength="623.09" waitingTime="0.00" waitingCount="0" stopTime="0.00" timeLoss="17.95" rerouteNo="0" devices="tripinfo_18" vType="DEFAULT_VEHTYPE" speedFactor="1.01" vaporized=""/>
    <tripinfo id="23" depart="83.00" departLane="-778823268#1_0" departPos="5.10" departSpeed="0.00" departDelay="0.20" arrival="127.00" arrivalLane="119238385#0_0" arrivalPos="144.87" arrivalSpeed="13.67" duration="44.00" routeLength="522.97" waitingTime="0.00" waitingCount="0" stopTime="0.00" timeLoss="6.41" rerouteNo="0" devices="tripinfo_23" vType="DEFAULT_VEHTYPE" speedFactor="1.03" vaporized=""/>
    <tripinfo id="25" depart="90.00" departLane="232079775#2_0" departPos="5.10" departSpeed="0.00" departDelay="0.00" arrival="133.00" arrivalLane="119238385#0_0" arrivalPos="144.87" arrivalSpeed="13.27" duration="43.00" routeLength="347.78" waitingTime="8.00" waitingCount="1" stopTime="0.00" timeLoss="16.12" rerouteNo="0" devices="tripinfo_25" vType="DEFAULT_VEHTYPE" speedFactor="0.96" vaporized=""/>
    <tripinfo id="19" depart="69.00" departLane="668307639#0_0" departPos="5.10" departSpeed="0.00" departDelay="0.60" arrival="134.00" arrivalLane="668307633#3_1" arrivalPos="112.63" arrivalSpeed="15.79" duration="65.00" routeLength="625.14" waitingTime="8.00" waitingCount="1" stopTime="0.00" timeLoss="22.76" rerouteNo="0" devices="tripinfo_19" vType="DEFAULT_VEHTYPE" speedFactor="0.96" vaporized=""/>
    <tripinfo id="29" depart="105.00" departLane="-778823268#1_0" departPos="5.10" departSpeed="0.00" departDelay="0.60" arrival="148.00" arrivalLane="44499684#3_0" arrivalPos="84.04" arrivalSpeed="14.26" duration="43.00" routeLength="453.00" waitingTime="0.00" waitingCount="0" stopTime="0.00" timeLoss="7.44" rerouteNo="0" devices="tripinfo_29" vType="DEFAULT_VEHTYPE" speedFactor="0.90" vaporized=""/>
    <tripinfo id="34" depart="123.00" departLane="232079775#2_0" departPos="5.10" departSpeed="0.00" departDelay="0.60" arrival="154.00" arrivalLane="119238385#0_0" arrivalPos="144.87" arrivalSpeed="13.47" duration="31.00" routeLength="347.78" waitingTime="0.00" waitingCount="0" stopTime="0.00" timeLoss="5.46" rerouteNo="0" devices="tripinfo_34" vType="DEFAULT_VEHTYPE" speedFactor="1.01" vaporized=""/>
    <tripinfo id="35" depart="126.00" departLane="-778823268#1_0" departPos="5.10" departSpeed="0.00" departDelay="0.00" arrival="155.00" arrivalLane="E1_0" arrivalPos="103.00" arrivalSpeed="15.89" duration="29.00" routeLength="369.88" waitingTime="0.00" waitingCount="0" stopTime="0.00" timeLoss="5.54" rerouteNo="0" devices="tripinfo_35" vType="DEFAULT_VEHTYPE" speedFactor="1.17" vaporized=""/>
    <tripinfo id="33" depart="119.00" departLane="-778823268#1_0" departPos="5.10" departSpeed="0.00" departDelay="0.20" arrival="158.00" arrivalLane="119238380#0_0" arrivalPos="135.86" arrivalSpeed="13.73" duration="39.00" routeLength="461.48" waitingTime="0.00" waitingCount="0" stopTime="0.00" timeLoss="4.86" rerouteNo="0" devices="tripinfo_33" vType="DEFAULT_VEHTYPE" speedFactor="0.99" vaporized=""/>
    <tripinfo id="32" depart="116.00" departLane="668307639#0_0" departPos="5.10" departSpeed="0.00" departDelay="0.80" arrival="161.00" arrivalLane="778823268#0_0" arrivalPos="238.22" arrivalSpeed="12.75" duration="45.00" routeLength="503.37" waitingTime="0.00" waitingCount="0" stopTime="0.00" timeLoss="8.73" rerouteNo="0" devices="tripinfo_32" vType="DEFAULT_VEHTYPE" speedFactor="0.96" vaporized=""/>
    <tripinfo id="26" depart="94.00" departLane="232079775#2_0" departPos="5.10" departSpeed="0.00" departDelay="0.40" arrival="168.00" arrivalLane="E1_1" arrivalPos="103.00" arrivalSpeed="13.57" duration="74.00" routeLength="382.90" waitingTime="30.00" waitingCount="2" stopTime="0.00" timeLoss="46.91" rerouteNo="0" devices="tripinfo_26" vType="DEFAULT_VEHTYPE" speedFactor="1.03" vaporized=""/>
    <tripinfo id="12" depart="44.00" departLane="668307639#0_0" departPos="5.10" departSpeed="0.00" departDelay="0.80" arrival="169.00" arrivalLane="44499684#3_0" arrivalPos="84.04" arrivalSpeed="14.92" duration="125.00" routeLength="486.19" waitingTime="73.00" waitingCount="2" stopTime="0.00" timeLoss="93.27" rerouteNo="0" devices="tripinfo_12" vType="DEFAULT_VEHTYPE" speedFactor="0.95" vaporized=""/>
    <tripinfo id="20" depart="72.00" departLane="448266581#0_0" departPos="5.10" departSpeed="0.00" departDelay="0.00" arrival="172.00" arrivalLane="119238380#0_0" arrivalPos="135.86" arrivalSpeed="11.79" duration="100.00" routeLength="354.71" waitingTime="62.00" waitingCount="1" stopTime="0.00" timeLoss="72.51" rerouteNo="0" devices="tripinfo_20" vType="DEFAULT_VEHTYPE" speedFactor="0.89" vaporized=""/>
    <tripinfo id="28" depart="101.00" departLane="-778823268#1_0" departPos="5.10" departSpeed="0.00" departDelay="0.20" arrival="174.00" arrivalLane="778823268#0_1" arrivalPos="238.22" arrivalSpeed="13.81" duration="73.00" routeLength="659.30" waitingTime="9.00" waitingCount="1" stopTime="0.00" timeLoss="23.63" rerouteNo="0" devices="tripinfo_28" vType="DEFAULT_VEHTYPE" speedFactor="1.01" vaporized=""/>
    <tripinfo id="39" depart="141.00" departLane="232079775#2_0" departPos="5.10" departSpeed="0.00" departDelay="0.60" arrival="175.00" arrivalLane="119238385#0_0" arrivalPos="144.87" arrivalSpeed="12.07" duration="34.00" routeLength="347.78" waitingTime="0.00" waitingCount="0" stopTime="0.00" timeLoss="5.25" rerouteNo="0" devices="tripinfo_39" vType="DEFAULT_VEHTYPE" speedFactor="0.89" vaporized=""/>
    <tripinfo id="16" depart="58.00" departLane="448266581#0_0" departPos="5.10" departSpeed="0.00" departDelay="0.40" arrival="180.00" arrivalLane="E1_1" arrivalPos="103.00" arrivalSpeed="13.25" duration="122.00" routeLength="448.81" waitingTime="75.00" waitingCount="2" stopTime="0.00" timeLoss="89.98" rerouteNo="0" devices="tripinfo_16" vType="DEFAULT_VEHTYPE" speedFactor="1.01" vaporized=""/>
    <tripinfo id="40" depart="144.00" departLane="448266581#0_0" departPos="5.10" departSpeed="0.00" departDelay="0.00" arrival="186.00" arrivalLane="119238385#0_0" arrivalPos="144.87" arrivalSpeed="14.53" duration="42.00" routeLength="416.20" waitingTime="1.00" waitingCount="1" stopTime="0.00" timeLoss="14.26" rerouteNo="0" devices="tripinfo_40" vType="DEFAULT_VEHTYPE" speedFactor="1.07" vaporized=""/>
    <tripinfo id="37" depart="134.00" departLane="448266581#0_0" departPos="5.10" departSpeed="0.00" departDelay="0.80" arrival="192.00" arrivalLane="44499684#3_2" arrivalPos="84.04" arrivalSpeed="12.98" duration="58.00" routeLength="508.78" waitingTime="3.00" waitingCount="1" stopTime="0.00" timeLoss="16.78" rerouteNo="0" devices="tripinfo_37" vType="DEFAULT_VEHTYPE" speedFactor="0.82" vaporized=""/>
    <tripinfo id="42" depart="152.00" departLane="232079775#2_0" departPos="5.10" departSpeed="0.00" departDelay="0.80" arrival="195.00" arrivalLane="119238385#0_0" arrivalPos="144.87" arrivalSpeed="12.37" duration="43.00" routeLength="347.78" waitingTime="4.00" waitingCount="1" stopTime="0.00" timeLoss="14.22" rerouteNo="0" devices="tripinfo_42" vType="DEFAULT_VEHTYPE" speedFactor="0.90" vaporized=""/>
    <tripinfo id="38" depart="137.00" departLane="668307639#0_0" departPos="5.10" departSpeed="0.00" departDelay="0.20" arrival="196.00" arrivalLane="44499684#3_0" arrivalPos="84.04" arrivalSpeed="18.29" duration="59.00" routeLength="485.82" waitingTime="18.00" waitingCount="1" stopTime="0.00" timeLoss="31.99" rerouteNo="0" devices="tripinfo_38" vType="DEFAULT_VEHTYPE" speedFactor="1.12" vaporized=""/>
    <tripinfo id="41" depart="148.00" departLane="448266581#0_0" departPos="5.10" departSpeed="0.00" departDelay="0.40" arrival="198.00" arrivalLane="E1_1" arrivalPos="103.00" arrivalSpeed="13.11" duration="50.00" routeLength="446.50" waitingTime="5.00" waitingCount="1" stopTime="0.00" timeLoss="16.91" rerouteNo="0" devices="tripinfo_41" vType="DEFAULT_VEHTYPE" speedFactor="0.98" vaporized=""/>
    <tripinfo id="46" depart="166.00" departLane="668307639#0_0" departPos="5.10" departSpeed="0.00" departDelay="0.40" arrival="199.00" arrivalLane="44499684#3_0" arrivalPos="84.04" arrivalSpeed="16.94" duration="33.00" routeLength="485.82" waitingTime="0.00" waitingCount="0" stopTime="0.00" timeLoss="4.92" rerouteNo="0" devices="tripinfo_46" vType="DEFAULT_VEHTYPE" speedFactor="1.06" vaporized=""/>
    <tripinfo id="47" depart="170.00" departLane="-778823268#1_0" departPos="5.10" departSpeed="0.00" departDelay="0.80" arrival="210.00" arrivalLane="44499684#3_0" arrivalPos="84.04" arrivalSpeed="15.41" duration="40.00" routeLength="453.00" waitingTime="0.00" waitingCount="0" stopTime="0.00" timeLoss="7.36" rerouteNo="0" devices="tripinfo_47" vType="DEFAULT_VEHTYPE" speedFactor="0.98" vaporized=""/>
    <tripinfo id="44" depart="159.00" departLane="-778823268#1_0" departPos="5.10" departSpeed="0.00" departDelay="0.60" arrival="218.00" arrivalLane="119238380#0_0" arrivalPos="135.86" arrivalSpeed="14.92" duration="59.00" routeLength="461.48" waitingTime="18.00" waitingCount="1" stopTime="0.00" timeLoss="29.80" rerouteNo="0" devices="tripinfo_44" vType="DEFAULT_VEHTYPE" speedFactor="1.16" vaporized=""/>
    <tripinfo id="31" depart="112.00" departLane="448266581#0_0" departPos="5.10" departSpeed="0.00" departDelay="0.40" arrival="223.00" arrivalLane="778823268#0_0" arrivalPos="238.22" arrivalSpeed="13.34" duration="111.00" routeLength="547.37" waitingTime="48.00" waitingCount="3" stopTime="0.00" timeLoss="73.44" rerouteNo="0" devices="tripinfo_31" vType="DEFAULT_VEHTYPE" speedFactor="1.05" vaporized=""/>
    <tripinfo id="36" depart="130.00" departLane="668307639#0_0" departPos="5.10" departSpeed="0.00" departDelay="0.40" arrival="228.00" arrivalLane="119238385#0_0" arrivalPos="144.87" arrivalSpeed="13.18" duration="98.00" routeLength="556.93" waitingTime="37.00" waitingCount="3" stopTime="0.00" timeLoss="57.76" rerouteNo="0" devices="tripinfo_36" vType="DEFAULT_VEHTYPE" speedFactor="0.96" vaporized=""/>
    <tripinfo id="52" depart="188.00" departLane="232079775#2_0" departPos="5.10" departSpeed="0.00" departDelay="0.80" arrival="230.00" arrivalLane="668307633#3_0" arrivalPos="112.63" arrivalSpeed="14.31" duration="42.00" routeLength="455.41" waitingTime="0.00" waitingCount="0" stopTime="0.00" timeLoss="7.79" rerouteNo="0" devices="tripinfo_52" vType="DEFAULT_VEHTYPE" speedFactor="0.90" vaporized=""/>
    <tripinfo id="53" depart="191.00" departLane="-778823268#1_0" departPos="5.10" departSpeed="0.00" departDelay="0.20" arrival="230.00" arrivalLane="44499684#3_0" arrivalPos="84.04" arrivalSpeed="15.08" duration="39.00" routeLength="453.00" waitingTime="0.00" waitingCount="0" stopTime="0.00" timeLoss="7.05" rerouteNo="0" devices="tripinfo_53" vType="DEFAULT_VEHTYPE" speedFactor="0.97" vaporized=""/>
    <tripinfo id="54" depart="195.00" departLane="232079775#2_0" departPos="5.10" departSpeed="0.00" departDelay="0.60" arrival="241.00" arrivalLane="E1_1" arrivalPos="103.00" arrivalSpeed="12.18" duration="46.00" routeLength="382.90" waitingTime="1.00" waitingCount="1" stopTime="0.00" timeLoss="13.68" rerouteNo="0" devices="tripinfo_54" vType="DEFAULT_VEHTYPE" speedFactor="0.89" vaporized=""/>
    <tripinfo id="24" depart="87.00" departLane="448266581#0_0" departPos="5.10" departSpeed="0.00" departDelay="0.60" arrival="243.00" arrivalLane="44499684#3_0" arrivalPos="84.04" arrivalSpeed="16.44" duration="156.00" routeLength="513.77" waitingTime="94.00" waitingCount="4" stopTime="0.00" timeLoss="122.79" rerouteNo="0" devices="tripinfo_24" vType="DEFAULT_VEHTYPE" speedFactor="1.05" vaporized=""/>
    <tripinfo id="49" depart="177.00" departLane="668307639#0_0" departPos="5.10" departSpeed="0.00" departDelay="0.60" arrival="244.00" arrivalLane="E1_1" arrivalPos="103.00" arrivalSpeed="13.99" duration="67.00" routeLength="411.03" waitingTime="29.00" waitingCount="1" stopTime="0.00" timeLoss="40.24" rerouteNo="0" devices="tripinfo_49" vType="DEFAULT_VEHTYPE" speedFactor="1.06" vaporized=""/>
    <tripinfo id="50" depart="180.00" departLane="-778823268#1_0" departPos="5.10" departSpeed="0.00" departDelay="0.00" arrival="245.00" arrivalLane="778823268#0_0" arrivalPos="238.22" arrivalSpeed="11.76" duration="65.00" routeLength="655.26" waitingTime="0.00" waitingCount="0" stopTime="0.00" timeLoss="11.69" rerouteNo="0" devices="tripinfo_50" vType="DEFAULT_VEHTYPE" speedFactor="0.91" vaporized=""/>
    <tripinfo id="45" depart="162.00" departLane="-778823268#1_0" departPos="5.10" departSpeed="0.00" departDelay="0.00" arrival="246.00" arrivalLane="668307633#3_2" arrivalPos="112.63" arrivalSpeed="17.86" duration="84.00" routeLength="595.69" waitingTime="30.00" waitingCount="2" stopTime="0.00" timeLoss="48.56" rerouteNo="0" devices="tripinfo_45" vType="DEFAULT_VEHTYPE" speedFactor="1.13" vaporized=""/>
    <tripinfo id="30" depart="108.00" departLane="668307639#0_0" departPos="5.10" departSpeed="0.00" departDelay="0.00" arrival="247.00" arrivalLane="668307633#3_0" arrivalPos="112.63" arrivalSpeed="16.89" duration="139.00" routeLength="623.09" waitingTime="84.00" waitingCount="1" stopTime="0.00" timeLoss="101.28" rerouteNo="0" devices="tripinfo_30" vType="DEFAULT_VEHTYPE" speedFactor="1.07" vaporized=""/>
    <tripinfo id="27" depart="98.00" departLane="448266581#0_0" departPos="5.10" departSpeed="0.00" departDelay="0.80" arrival="248.00" arrivalLane="668307633#3_1" arrivalPos="112.63" arrivalSpeed="15.48" duration="150.00" routeLength="489.91" waitingTime="100.00" waitingCount="2" stopTime="0.00" timeLoss="118.65" rerouteNo="0" devices="tripinfo_27" vType="DEFAULT_VEHTYPE" speedFactor="0.94" vaporized=""/>
    <tripinfo id="51" depart="184.00" departLane="448266581#0_0" departPos="5.10" departSpeed="0.00" departDelay="0.40" arrival="248.00" arrivalLane="668307633#3_0" arrivalPos="112.63" arrivalSpeed="18.11" duration="64.00" routeLength="489.91" waitingTime="25.00" waitingCount="1" stopTime="0.00" timeLoss="37.88" rerouteNo="0" devices="tripinfo_51" vType="DEFAULT_VEHTYPE" speedFactor="1.13" vaporized=""/>
    <tripinfo id="59" depart="213.00" departLane="448266581#0_0" departPos="5.10" departSpeed="0.00" departDelay="0.60" arrival="249.00" arrivalLane="119238380#0_0" arrivalPos="135.86" arrivalSpeed="13.86" duration="36.00" routeLength="356.22" waitingTime="0.00" waitingCount="0" stopTime="0.00" timeLoss="13.20" rerouteNo="0" devices="tripinfo_59" vType="DEFAULT_VEHTYPE" speedFactor="1.07" vaporized=""/>
    <tripinfo id="48" depart="173.00" departLane="668307639#0_0" departPos="5.10" departSpeed="0.00" departDelay="0.20" arrival="250.00" arrivalLane="668307633#3_1" arrivalPos="112.63" arrivalSpeed="15.10" duration="77.00" routeLength="623.09" waitingTime="13.00" waitingCount="1" stopTime="0.00" timeLoss="34.32" rerouteNo="0" devices="tripinfo_48" vType="DEFAULT_VEHTYPE" speedFactor="0.96" vaporized=""/>
    <tripinfo id="43" depart="155.00" departLane="668307639#0_0" departPos="5.10" departSpeed="0.00" departDelay="0.20" arrival="253.00" arrivalLane="668307633#3_0" arrivalPos="112.63" arrivalSpeed="13.80" duration="98.00" routeLength="625.14" waitingTime="27.00" waitingCount="3" stopTime="0.00" timeLoss="51.92" rerouteNo="0" devices="tripinfo_43" vType="DEFAULT_VEHTYPE" speedFactor="0.88" vaporized=""/>
    <tripinfo id="56" depart="202.00" departLane="448266581#0_0" departPos="5.10" departSpeed="0.00" departDelay="0.40" arrival="253.00" arrivalLane="119238385#0_0" arrivalPos="144.87" arrivalSpeed="11.83" duration="51.00" routeLength="416.20" waitingTime="8.00" waitingCount="1" stopTime="0.00" timeLoss="17.83" rerouteNo="0" devices="tripinfo_56" vType="DEFAULT_VEHTYPE" speedFactor="0.88" vaporized=""/>
    <tripinfo id="58" depart="209.00" departLane="232079775#2_0" departPos="5.10" departSpeed="0.00" departDelay="0.20" arrival="255.00" arrivalLane="668307633#3_0" arrivalPos="112.63" arrivalSpeed="15.45" duration="46.00" routeLength="455.41" waitingTime="2.00" waitingCount="1" stopTime="0.00" timeLoss="15.36" rerouteNo="0" devices="tripinfo_58" vType="DEFAULT_VEHTYPE" speedFactor="1.00" vaporized=""/>
    <tripinfo id="63" depart="227.00" departLane="-778823268#1_0" departPos="5.10" departSpeed="0.00" departDelay="0.20" arrival="259.00" arrivalLane="E1_0" arrivalPos="103.00" arrivalSpeed="13.44" duration="32.00" routeLength="369.88" waitingTime="0.00" waitingCount="0" stopTime="0.00" timeLoss="5.53" rerouteNo="0" devices="tripinfo_63" vType="DEFAULT_VEHTYPE" speedFactor="1.03" vaporized=""/>
    <tripinfo id="57" depart="206.00" departLane="668307639#0_0" departPos="5.10" departSpeed="0.00" departDelay="0.80" arrival="262.00" arrivalLane="E1_1" arrivalPos="103.00" arrivalSpeed="14.54" duration="56.00" routeLength="411.03" waitingTime="10.00" waitingCount="3" stopTime="0.00" timeLoss="29.49" rerouteNo="0" devices="tripinfo_57" vType="DEFAULT_VEHTYPE" speedFactor="1.06" vaporized=""/>
    <tripinfo id="64" depart="231.00" departLane="668307639#0_0" departPos="5.10" departSpeed="0.00" departDelay="0.60" arrival="276.00" arrivalLane="778823268#0_0" arrivalPos="238.22" arrivalSpeed="13.57" duration="45.00" routeLength="503.37" waitingTime="0.00" waitingCount="0" stopTime="0.00" timeLoss="10.97" rerouteNo="0" devices="tripinfo_64" vType="DEFAULT_VEHTYPE" speedFactor="1.03" vaporized=""/>
    <tripinfo id="66" depart="238.00" departLane="668307639#0_0" departPos="5.10" departSpeed="0.00" departDelay="0.40" arrival="280.00" arrivalLane="E1_1" arrivalPos="103.00" arrivalSpeed="14.66" duration="42.00" routeLength="411.03" waitingTime="4.00" waitingCount="1" stopTime="0.00" timeLoss="16.68" rerouteNo="0" devices="tripinfo_66" vType="DEFAULT_VEHTYPE" speedFactor="1.09" vaporized=""/>
    <tripinfo id="67" depart="242.00" departLane="-778823268#1_0" departPos="5.10" departSpeed="0.00" departDelay="0.80" arrival="281.00" arrivalLane="44499684#3_0" arrivalPos="84.04" arrivalSpeed="15.83" duration="39.00" routeLength="453.00" waitingTime="0.00" waitingCount="0" stopTime="0.00" timeLoss="7.70" rerouteNo="0" devices="tripinfo_67" vType="DEFAULT_VEHTYPE" speedFactor="0.98" vaporized=""/>
    <tripinfo id="72" depart="260.00" departLane="232079775#2_0" departPos="5.10" departSpeed="0.00" departDelay="0.80" arrival="289.00" arrivalLane="119238385#0_0" arrivalPos="144.87" arrivalSpeed="15.40" duration="29.00" routeLength="347.78" waitingTime="0.00" waitingCount="0" stopTime="0.00" timeLoss="6.41" rerouteNo="0" devices="tripinfo_72" vType="DEFAULT_VEHTYPE" speedFactor="1.12" vaporized=""/>
    <tripinfo id="70" depart="252.00" departLane="232079775#2_0" departPos="5.10" departSpeed="0.00" departDelay="0.00" arrival="291.00" arrivalLane="668307633#3_0" arrivalPos="112.63" arrivalSpeed="17.09" duration="39.00" routeLength="455.41" waitingTime="0.00" waitingCount="0" stopTime="0.00" timeLoss="9.96" rerouteNo="0" devices="tripinfo_70" vType="DEFAULT_VEHTYPE" speedFactor="1.08" vaporized=""/>
    <tripinfo id="76" depart="274.00" departLane="232079775#2_0" departPos="5.10" departSpeed="0.00" departDelay="0.40" arrival="314.00" arrivalLane="668307633#3_0" arrivalPos="112.63" arrivalSpeed="16.34" duration="40.00" routeLength="455.41" waitingTime="0.00" waitingCount="0" stopTime="0.00" timeLoss="8.77" rerouteNo="0" devices="tripinfo_76" vType="DEFAULT_VEHTYPE" speedFactor="0.99" vaporized=""/>
    <tripinfo id="71" depart="256.00" departLane="232079775#2_0" departPos="5.10" departSpeed="0.00" departDelay="0.40" arrival="317.00" arrivalLane="E1_1" arrivalPos="103.00" arrivalSpeed="12.41" duration="61.00" routeLength="382.90" waitingTime="16.00" waitingCount="1" stopTime="0.00" timeLoss="29.59" rerouteNo="0" devices="tripinfo_71" vType="DEFAULT_VEHTYPE" speedFactor="0.90" vaporized=""/>
    <tripinfo id="78" depart="281.00" departLane="232079775#2_0" departPos="5.10" departSpeed="0.00" departDelay="0.20" arrival="318.00" arrivalLane="668307633#3_0" arrivalPos="112.63" arrivalSpeed="17.80" duration="37.00" routeLength="455.41" waitingTime="0.00" waitingCount="0" stopTime="0.00" timeLoss="10.63" rerouteNo="0" devices="tripinfo_78" vType="DEFAULT_VEHTYPE" speedFactor="1.14" vaporized=""/>
    <tripinfo id="81" depart="292.00" departLane="-778823268#1_0" departPos="5.10" departSpeed="0.00" departDelay="0.40" arrival="348.00" arrivalLane="E1_0" arrivalPos="103.00" arrivalSpeed="13.73" duration="56.00" routeLength="369.88" waitingTime="17.00" waitingCount="1" stopTime="0.00" timeLoss="28.56" rerouteNo="0" devices="tripinfo_81" vType="DEFAULT_VEHTYPE" speedFactor="1.02" vaporized=""/>