<?xml version="1.0" encoding="UTF-8"?>

<!-- generated on 2024-08-31 19:12:39 by Eclipse SUMO sumo Version 1.20.0
<configuration xmlns:xsi="http://www.w3.org/2001/XMLSchema-instance" xsi:noNamespaceSchemaLocation="http://sumo.dlr.de/xsd/sumoConfiguration.xsd">

    <input>
        <net-file value="c:\self\School\Master\Disertation\code\RESCO\resco_benchmark\environments/romana/osm.net.xml.gz"/>
        <route-files value="c:\self\School\Master\Disertation\code\RESCO\resco_benchmark\environments/romana/osm.passenger.trips.xml"/>
        <additional-files value="c:\self\School\Master\Disertation\code\RESCO\resco_benchmark\environments/romana/osm.poly.xml.gz"/>
    </input>

    <output>
        <tripinfo-output value="C:\self\School\Master\Disertation\code\RESCO\results\MPLight-tr0-romana-0-mplight-pressure\tripinfo_7.xml"/>
        <tripinfo-output.write-unfinished value="true"/>
    </output>

    <processing>
        <ignore-route-errors value="true"/>
        <time-to-teleport value="-1"/>
    </processing>

    <routing>
        <device.rerouting.adaptation-steps value="18"/>
        <device.rerouting.adaptation-interval value="10"/>
    </routing>

    <report>
        <verbose value="true"/>
        <no-warnings value="True"/>
        <duration-log.statistics value="true"/>
        <no-step-log value="True"/>
    </report>

    <traci_server>
        <remote-port value="64804"/>
    </traci_server>

    <random_number>
        <random value="true"/>
    </random_number>

    <gui_only>
        <gui-settings-file value="c:\self\School\Master\Disertation\code\RESCO\resco_benchmark\environments/romana/osm.view.xml"/>
    </gui_only>

</configuration>
-->

<tripinfos xmlns:xsi="http://www.w3.org/2001/XMLSchema-instance" xsi:noNamespaceSchemaLocation="http://sumo.dlr.de/xsd/tripinfo_file.xsd">
    <tripinfo id="0" depart="0.00" departLane="448266581#0_0" departPos="5.10" departSpeed="0.00" departDelay="0.00" arrival="31.00" arrivalLane="119238380#0_0" arrivalPos="135.86" arrivalSpeed="12.09" duration="31.00" routeLength="354.71" waitingTime="0.00" waitingCount="0" stopTime="0.00" timeLoss="4.64" rerouteNo="0" devices="tripinfo_0" vType="DEFAULT_VEHTYPE" speedFactor="0.92" vaporized=""/>
    <tripinfo id="1" depart="4.00" departLane="232079775#2_0" departPos="5.10" departSpeed="0.00" departDelay="0.40" arrival="32.00" arrivalLane="119238385#0_0" arrivalPos="144.87" arrivalSpeed="15.42" duration="28.00" routeLength="347.78" waitingTime="0.00" waitingCount="0" stopTime="0.00" timeLoss="5.76" rerouteNo="0" devices="tripinfo_1" vType="DEFAULT_VEHTYPE" speedFactor="1.15" vaporized=""/>
    <tripinfo id="5" depart="18.00" departLane="-778823268#1_0" departPos="5.10" departSpeed="0.00" departDelay="0.00" arrival="62.00" arrivalLane="668307633#3_1" arrivalPos="112.63" arrivalSpeed="16.98" duration="44.00" routeLength="595.69" waitingTime="0.00" waitingCount="0" stopTime="0.00" timeLoss="5.76" rerouteNo="0" devices="tripinfo_5" vType="DEFAULT_VEHTYPE" speedFactor="1.05" vaporized=""/>
    <tripinfo id="6" depart="22.00" departLane="-778823268#1_0" departPos="5.10" departSpeed="0.00" departDelay="0.40" arrival="71.00" arrivalLane="119238385#0_0" arrivalPos="144.87" arrivalSpeed="11.95" duration="49.00" routeLength="522.97" waitingTime="0.00" waitingCount="0" stopTime="0.00" timeLoss="5.80" rerouteNo="0" devices="tripinfo_6" vType="DEFAULT_VEHTYPE" speedFactor="0.90" vaporized=""/>
    <tripinfo id="3" depart="11.00" departLane="668307639#0_0" departPos="5.10" departSpeed="0.00" departDelay="0.20" arrival="73.00" arrivalLane="119238380#0_0" arrivalPos="135.86" arrivalSpeed="11.88" duration="62.00" routeLength="495.44" waitingTime="15.00" waitingCount="1" stopTime="0.00" timeLoss="25.80" rerouteNo="0" devices="tripinfo_3" vType="DEFAULT_VEHTYPE" speedFactor="0.95" vaporized=""/>
    <tripinfo id="10" depart="36.00" departLane="668307639#0_0" departPos="5.10" departSpeed="0.00" departDelay="0.00" arrival="79.00" arrivalLane="778823268#0_0" arrivalPos="238.22" arrivalSpeed="13.27" duration="43.00" routeLength="503.37" waitingTime="0.00" waitingCount="0" stopTime="0.00" timeLoss="8.48" rerouteNo="0" devices="tripinfo_10" vType="DEFAULT_VEHTYPE" speedFactor="0.99" vaporized=""/>
    <tripinfo id="9" depart="33.00" departLane="668307639#0_0" departPos="5.10" departSpeed="0.00" departDelay="0.60" arrival="80.00" arrivalLane="119238380#0_0" arrivalPos="135.86" arrivalSpeed="10.60" duration="47.00" routeLength="495.44" waitingTime="0.00" waitingCount="0" stopTime="0.00" timeLoss="7.08" rerouteNo="0" devices="tripinfo_9" vType="DEFAULT_VEHTYPE" speedFactor="0.86" vaporized=""/>
    <tripinfo id="13" depart="47.00" departLane="-778823268#1_0" departPos="5.10" departSpeed="0.00" departDelay="0.20" arrival="89.00" arrivalLane="119238380#0_0" arrivalPos="135.86" arrivalSpeed="12.21" duration="42.00" routeLength="461.48" waitingTime="0.00" waitingCount="0" stopTime="0.00" timeLoss="5.46" rerouteNo="0" devices="tripinfo_13" vType="DEFAULT_VEHTYPE" speedFactor="0.92" vaporized=""/>
    <tripinfo id="8" depart="29.00" departLane="-778823268#1_0" departPos="5.10" departSpeed="0.00" departDelay="0.20" arrival="98.00" arrivalLane="668307633#3_0" arrivalPos="112.63" arrivalSpeed="15.83" duration="69.00" routeLength="595.69" waitingTime="14.00" waitingCount="1" stopTime="0.00" timeLoss="26.18" rerouteNo="0" devices="tripinfo_8" vType="DEFAULT_VEHTYPE" speedFactor="0.96" vaporized=""/>
    <tripinfo id="11" depart="40.00" departLane="232079775#2_0" departPos="5.10" departSpeed="0.00" departDelay="0.40" arrival="98.00" arrivalLane="119238380#0_0" arrivalPos="135.86" arrivalSpeed="12.66" duration="58.00" routeLength="467.31" waitingTime="8.00" waitingCount="1" stopTime="0.00" timeLoss="22.14" rerouteNo="0" devices="tripinfo_11" vType="DEFAULT_VEHTYPE" speedFactor="0.96" vaporized=""/>
    <tripinfo id="15" depart="54.00" departLane="668307639#0_0" departPos="5.10" departSpeed="0.00" departDelay="0.00" arrival="102.00" arrivalLane="778823268#0_0" arrivalPos="238.22" arrivalSpeed="13.49" duration="48.00" routeLength="503.37" waitingTime="0.00" waitingCount="0" stopTime="0.00" timeLoss="12.76" rerouteNo="0" devices="tripinfo_15" vType="DEFAULT_VEHTYPE" speedFactor="1.00" vaporized=""/>
    <tripinfo id="14" depart="51.00" departLane="668307639#0_0" departPos="5.10" departSpeed="0.00" departDelay="0.60" arrival="110.00" arrivalLane="668307633#3_1" arrivalPos="112.63" arrivalSpeed="14.80" duration="59.00" routeLength="623.09" waitingTime="4.00" waitingCount="1" stopTime="0.00" timeLoss="15.07" rerouteNo="0" devices="tripinfo_14" vType="DEFAULT_VEHTYPE" speedFactor="0.92" vaporized=""/>
    <tripinfo id="17" depart="62.00" departLane="232079775#2_0" departPos="5.10" departSpeed="0.00" departDelay="0.80" arrival="114.00" arrivalLane="668307633#3_0" arrivalPos="112.63" arrivalSpeed="10.70" duration="52.00" routeLength="455.41" waitingTime="0.00" waitingCount="0" stopTime="0.00" timeLoss="8.27" rerouteNo="0" devices="tripinfo_17" vType="DEFAULT_VEHTYPE" speedFactor="0.70" vaporized=""/>
    <tripinfo id="18" depart="65.00" departLane="668307639#0_0" departPos="5.10" departSpeed="0.00" departDelay="0.20" arrival="122.00" arrivalLane="668307633#3_1" arrivalPos="112.63" arrivalSpeed="16.32" duration="57.00" routeLength="623.09" waitingTime="1.00" waitingCount="1" stopTime="0.00" timeLoss="17.08" rerouteNo="0" devices="tripinfo_18" vType="DEFAULT_VEHTYPE" speedFactor="1.01" vaporized=""/>
    <tripinfo id="19" depart="69.00" departLane="668307639#0_0" departPos="5.10" departSpeed="0.00" departDelay="0.60" arrival="122.00" arrivalLane="668307633#3_2" arrivalPos="112.63" arrivalSpeed="17.15" duration="53.00" routeLength="625.14" waitingTime="0.00" waitingCount="0" stopTime="0.00" timeLoss="15.37" rerouteNo="0" devices="tripinfo_19" vType="DEFAULT_VEHTYPE" speedFactor="1.07" vaporized=""/>
    <tripinfo id="21" depart="76.00" departLane="-778823268#1_0" departPos="5.10" departSpeed="0.00" departDelay="0.40" arrival="123.00" arrivalLane="119238385#0_0" arrivalPos="144.87" arrivalSpeed="12.55" duration="47.00" routeLength="522.97" waitingTime="0.00" waitingCount="0" stopTime="0.00" timeLoss="5.93" rerouteNo="0" devices="tripinfo_21" vType="DEFAULT_VEHTYPE" speedFactor="0.95" vaporized=""/>
    <tripinfo id="22" depart="80.00" departLane="-778823268#1_0" departPos="5.10" departSpeed="0.00" departDelay="0.80" arrival="125.00" arrivalLane="119238385#0_0" arrivalPos="144.87" arrivalSpeed="13.44" duration="45.00" routeLength="522.97" waitingTime="0.00" waitingCount="0" stopTime="0.00" timeLoss="7.18" rerouteNo="0" devices="tripinfo_22" vType="DEFAULT_VEHTYPE" speedFactor="1.02" vaporized=""/>
    <tripinfo id="23" depart="83.00" departLane="-778823268#1_0" departPos="5.10" departSpeed="0.00" departDelay="0.20" arrival="138.00" arrivalLane="119238385#0_0" arrivalPos="144.87" arrivalSpeed="10.17" duration="55.00" routeLength="522.97" waitingTime="0.00" waitingCount="0" stopTime="0.00" timeLoss="7.00" rerouteNo="0" devices="tripinfo_23" vType="DEFAULT_VEHTYPE" speedFactor="0.81" vaporized=""/>
    <tripinfo id="25" depart="90.00" departLane="232079775#2_0" departPos="5.10" departSpeed="0.00" departDelay="0.00" arrival="140.00" arrivalLane="119238385#0_0" arrivalPos="144.87" arrivalSpeed="13.81" duration="50.00" routeLength="347.78" waitingTime="15.00" waitingCount="1" stopTime="0.00" timeLoss="27.37" rerouteNo="0" devices="tripinfo_25" vType="DEFAULT_VEHTYPE" speedFactor="1.13" vaporized=""/>
    <tripinfo id="12" depart="44.00" departLane="668307639#0_0" departPos="5.10" departSpeed="0.00" departDelay="0.80" arrival="142.00" arrivalLane="44499684#3_0" arrivalPos="84.04" arrivalSpeed="18.00" duration="98.00" routeLength="485.82" waitingTime="59.00" waitingCount="1" stopTime="0.00" timeLoss="71.14" rerouteNo="0" devices="tripinfo_12" vType="DEFAULT_VEHTYPE" speedFactor="1.11" vaporized=""/>
    <tripinfo id="29" depart="105.00" departLane="-778823268#1_0" departPos="5.10" departSpeed="0.00" departDelay="0.60" arrival="146.00" arrivalLane="44499684#3_0" arrivalPos="84.04" arrivalSpeed="17.48" duration="41.00" routeLength="453.00" waitingTime="1.00" waitingCount="1" stopTime="0.00" timeLoss="12.04" rerouteNo="0" devices="tripinfo_29" vType="DEFAULT_VEHTYPE" speedFactor="1.06" vaporized=""/>
    <tripinfo id="20" depart="72.00" departLane="448266581#0_0" departPos="5.10" departSpeed="0.00" departDelay="0.00" arrival="151.00" arrivalLane="119238380#0_0" arrivalPos="135.86" arrivalSpeed="14.22" duration="79.00" routeLength="356.22" waitingTime="40.00" waitingCount="1" stopTime="0.00" timeLoss="56.36" rerouteNo="0" devices="tripinfo_20" vType="DEFAULT_VEHTYPE" speedFactor="1.10" vaporized=""/>
    <tripinfo id="7" depart="26.00" departLane="448266581#0_0" departPos="5.10" departSpeed="0.00" departDelay="0.80" arrival="154.00" arrivalLane="668307633#3_1" arrivalPos="112.63" arrivalSpeed="16.87" duration="128.00" routeLength="490.12" waitingTime="86.00" waitingCount="2" stopTime="0.00" timeLoss="99.57" rerouteNo="0" devices="tripinfo_7" vType="DEFAULT_VEHTYPE" speedFactor="1.06" vaporized=""/>
    <tripinfo id="27" depart="98.00" departLane="448266581#0_0" departPos="5.10" departSpeed="0.00" departDelay="0.80" arrival="154.00" arrivalLane="668307633#3_2" arrivalPos="112.63" arrivalSpeed="13.56" duration="56.00" routeLength="490.12" waitingTime="10.00" waitingCount="1" stopTime="0.00" timeLoss="22.16" rerouteNo="0" devices="tripinfo_27" vType="DEFAULT_VEHTYPE" speedFactor="0.89" vaporized=""/>
    <tripinfo id="35" depart="126.00" departLane="-778823268#1_0" departPos="5.10" departSpeed="0.00" departDelay="0.00" arrival="159.00" arrivalLane="E1_0" arrivalPos="103.00" arrivalSpeed="12.87" duration="33.00" routeLength="369.88" waitingTime="0.00" waitingCount="0" stopTime="0.00" timeLoss="5.40" rerouteNo="0" devices="tripinfo_35" vType="DEFAULT_VEHTYPE" speedFactor="0.98" vaporized=""/>
    <tripinfo id="32" depart="116.00" departLane="668307639#0_0" departPos="5.10" departSpeed="0.00" departDelay="0.80" arrival="160.00" arrivalLane="778823268#0_0" arrivalPos="238.22" arrivalSpeed="13.17" duration="44.00" routeLength="503.37" waitingTime="0.00" waitingCount="0" stopTime="0.00" timeLoss="9.33" rerouteNo="0" devices="tripinfo_32" vType="DEFAULT_VEHTYPE" speedFactor="1.00" vaporized=""/>
    <tripinfo id="34" depart="123.00" departLane="232079775#2_0" departPos="5.10" departSpeed="0.00" departDelay="0.60" arrival="164.00" arrivalLane="119238385#0_0" arrivalPos="144.87" arrivalSpeed="14.26" duration="41.00" routeLength="347.78" waitingTime="1.00" waitingCount="1" stopTime="0.00" timeLoss="17.33" rerouteNo="0" devices="tripinfo_34" vType="DEFAULT_VEHTYPE" speedFactor="1.07" vaporized=""/>
    <tripinfo id="39" depart="141.00" departLane="232079775#2_0" departPos="5.10" departSpeed="0.00" departDelay="0.60" arrival="171.00" arrivalLane="119238385#0_0" arrivalPos="144.87" arrivalSpeed="14.58" duration="30.00" routeLength="347.78" waitingTime="0.00" waitingCount="0" stopTime="0.00" timeLoss="6.74" rerouteNo="0" devices="tripinfo_39" vType="DEFAULT_VEHTYPE" speedFactor="1.11" vaporized=""/>
    <tripinfo id="38" depart="137.00" departLane="668307639#0_0" departPos="5.10" departSpeed="0.00" departDelay="0.20" arrival="172.00" arrivalLane="44499684#3_0" arrivalPos="84.04" arrivalSpeed="16.47" duration="35.00" routeLength="485.82" waitingTime="0.00" waitingCount="0" stopTime="0.00" timeLoss="4.98" rerouteNo="0" devices="tripinfo_38" vType="DEFAULT_VEHTYPE" speedFactor="1.01" vaporized=""/>
    <tripinfo id="40" depart="144.00" departLane="448266581#0_0" departPos="5.10" departSpeed="0.00" departDelay="0.00" arrival="178.00" arrivalLane="119238385#0_0" arrivalPos="144.87" arrivalSpeed="14.34" duration="34.00" routeLength="416.20" waitingTime="0.00" waitingCount="0" stopTime="0.00" timeLoss="6.96" rerouteNo="0" devices="tripinfo_40" vType="DEFAULT_VEHTYPE" speedFactor="1.08" vaporized=""/>
    <tripinfo id="42" depart="152.00" departLane="232079775#2_0" departPos="5.10" departSpeed="0.00" departDelay="0.80" arrival="191.00" arrivalLane="119238385#0_0" arrivalPos="144.87" arrivalSpeed="11.07" duration="39.00" routeLength="347.78" waitingTime="2.00" waitingCount="1" stopTime="0.00" timeLoss="10.36" rerouteNo="0" devices="tripinfo_42" vType="DEFAULT_VEHTYPE" speedFactor="0.88" vaporized=""/>
    <tripinfo id="28" depart="101.00" departLane="-778823268#1_0" departPos="5.10" departSpeed="0.00" departDelay="0.20" arrival="197.00" arrivalLane="778823268#0_1" arrivalPos="238.22" arrivalSpeed="14.28" duration="96.00" routeLength="659.30" waitingTime="37.00" waitingCount="1" stopTime="0.00" timeLoss="51.10" rerouteNo="0" devices="tripinfo_28" vType="DEFAULT_VEHTYPE" speedFactor="1.09" vaporized=""/>
    <tripinfo id="46" depart="166.00" departLane="668307639#0_0" departPos="5.10" departSpeed="0.00" departDelay="0.40" arrival="201.00" arrivalLane="44499684#3_0" arrivalPos="84.04" arrivalSpeed="16.13" duration="35.00" routeLength="485.82" waitingTime="0.00" waitingCount="0" stopTime="0.00" timeLoss="4.93" rerouteNo="0" devices="tripinfo_46" vType="DEFAULT_VEHTYPE" speedFactor="1.00" vaporized=""/>
    <tripinfo id="47" depart="170.00" departLane="-778823268#1_0" departPos="5.10" departSpeed="0.00" departDelay="0.80" arrival="214.00" arrivalLane="44499684#3_0" arrivalPos="84.04" arrivalSpeed="12.85" duration="44.00" routeLength="453.00" waitingTime="0.00" waitingCount="0" stopTime="0.00" timeLoss="7.00" rerouteNo="0" devices="tripinfo_47" vType="DEFAULT_VEHTYPE" speedFactor="0.85" vaporized=""/>
    <tripinfo id="16" depart="58.00" departLane="448266581#0_0" departPos="5.10" departSpeed="0.00" departDelay="0.40" arrival="215.00" arrivalLane="E1_1" arrivalPos="103.00" arrivalSpeed="14.66" duration="157.00" routeLength="448.81" waitingTime="102.00" waitingCount="3" stopTime="0.00" timeLoss="127.15" rerouteNo="0" devices="tripinfo_16" vType="DEFAULT_VEHTYPE" speedFactor="1.07" vaporized=""/>
    <tripinfo id="24" depart="87.00" departLane="448266581#0_0" departPos="5.10" departSpeed="0.00" departDelay="0.60" arrival="218.00" arrivalLane="44499684#3_2" arrivalPos="84.04" arrivalSpeed="15.58" duration="131.00" routeLength="508.78" waitingTime="71.00" waitingCount="3" stopTime="0.00" timeLoss="95.07" rerouteNo="0" devices="tripinfo_24" vType="DEFAULT_VEHTYPE" speedFactor="0.97" vaporized=""/>
    <tripinfo id="37" depart="134.00" departLane="448266581#0_0" departPos="5.10" departSpeed="0.00" departDelay="0.80" arrival="220.00" arrivalLane="44499684#3_1" arrivalPos="84.04" arrivalSpeed="15.94" duration="86.00" routeLength="512.41" waitingTime="35.00" waitingCount="2" stopTime="0.00" timeLoss="50.08" rerouteNo="0" devices="tripinfo_37" vType="DEFAULT_VEHTYPE" speedFactor="0.98" vaporized=""/>
    <tripinfo id="2" depart="8.00" departLane="448266581#0_0" departPos="5.10" departSpeed="0.00" departDelay="0.80" arrival="233.00" arrivalLane="778823268#0_0" arrivalPos="238.22" arrivalSpeed="11.61" duration="225.00" routeLength="546.01" waitingTime="163.00" waitingCount="2" stopTime="0.00" timeLoss="178.39" rerouteNo="0" devices="tripinfo_2" vType="DEFAULT_VEHTYPE" speedFactor="0.85" vaporized=""/>
    <tripinfo id="31" depart="112.00" departLane="448266581#0_0" departPos="5.10" departSpeed="0.00" departDelay="0.40" arrival="234.00" arrivalLane="778823268#0_1" arrivalPos="238.22" arrivalSpeed="13.65" duration="122.00" routeLength="547.37" waitingTime="44.00" waitingCount="3" stopTime="0.00" timeLoss="83.83" rerouteNo="0" devices="tripinfo_31" vType="DEFAULT_VEHTYPE" speedFactor="1.03" vaporized=""/>
    <tripinfo id="52" depart="188.00" departLane="232079775#2_0" departPos="5.10" departSpeed="0.00" departDelay="0.80" arrival="234.00" arrivalLane="668307633#3_0" arrivalPos="112.63" arrivalSpeed="13.38" duration="46.00" routeLength="455.41" waitingTime="0.00" waitingCount="0" stopTime="0.00" timeLoss="8.12" rerouteNo="0" devices="tripinfo_52" vType="DEFAULT_VEHTYPE" speedFactor="0.81" vaporized=""/>
    <tripinfo id="53" depart="191.00" departLane="-778823268#1_0" departPos="5.10" departSpeed="0.00" departDelay="0.20" arrival="234.00" arrivalLane="44499684#3_0" arrivalPos="84.04" arrivalSpeed="14.08" duration="43.00" routeLength="453.00" waitingTime="0.00" waitingCount="0" stopTime="0.00" timeLoss="6.98" rerouteNo="0" devices="tripinfo_53" vType="DEFAULT_VEHTYPE" speedFactor="0.88" vaporized=""/>
    <tripinfo id="41" depart="148.00" departLane="448266581#0_0" departPos="5.10" departSpeed="0.00" departDelay="0.40" arrival="239.00" arrivalLane="E1_1" arrivalPos="103.00" arrivalSpeed="10.30" duration="91.00" routeLength="448.81" waitingTime="30.00" waitingCount="3" stopTime="0.00" timeLoss="51.50" rerouteNo="0" devices="tripinfo_41" vType="DEFAULT_VEHTYPE" speedFactor="0.82" vaporized=""/>
    <tripinfo id="56" depart="202.00" departLane="448266581#0_0" departPos="5.10" departSpeed="0.00" departDelay="0.40" arrival="240.00" arrivalLane="119238385#0_0" arrivalPos="144.87" arrivalSpeed="12.56" duration="38.00" routeLength="413.39" waitingTime="0.00" waitingCount="0" stopTime="0.00" timeLoss="6.40" rerouteNo="0" devices="tripinfo_56" vType="DEFAULT_VEHTYPE" speedFactor="0.95" vaporized=""/>
    <tripinfo id="26" depart="94.00" departLane="232079775#2_0" departPos="5.10" departSpeed="0.00" departDelay="0.40" arrival="241.00" arrivalLane="E1_1" arrivalPos="103.00" arrivalSpeed="14.34" duration="147.00" routeLength="382.90" waitingTime="94.00" waitingCount="4" stopTime="0.00" timeLoss="122.36" rerouteNo="0" devices="tripinfo_26" vType="DEFAULT_VEHTYPE" speedFactor="1.18" vaporized=""/>
    <tripinfo id="59" depart="213.00" departLane="448266581#0_0" departPos="5.10" departSpeed="0.00" departDelay="0.60" arrival="244.00" arrivalLane="119238380#0_0" arrivalPos="135.86" arrivalSpeed="14.06" duration="31.00" routeLength="354.71" waitingTime="0.00" waitingCount="0" stopTime="0.00" timeLoss="7.52" rerouteNo="0" devices="tripinfo_59" vType="DEFAULT_VEHTYPE" speedFactor="1.04" vaporized=""/>
    <tripinfo id="58" depart="209.00" departLane="232079775#2_0" departPos="5.10" departSpeed="0.00" departDelay="0.20" arrival="250.00" arrivalLane="668307633#3_0" arrivalPos="112.63" arrivalSpeed="18.15" duration="41.00" routeLength="455.41" waitingTime="0.00" waitingCount="0" stopTime="0.00" timeLoss="14.27" rerouteNo="0" devices="tripinfo_58" vType="DEFAULT_VEHTYPE" speedFactor="1.17" vaporized=""/>
    <tripinfo id="51" depart="184.00" departLane="448266581#0_0" departPos="5.10" departSpeed="0.00" departDelay="0.40" arrival="275.00" arrivalLane="668307633#3_0" arrivalPos="112.63" arrivalSpeed="13.40" duration="91.00" routeLength="489.91" waitingTime="46.00" waitingCount="1" stopTime="0.00" timeLoss="55.77" rerouteNo="0" devices="tripinfo_51" vType="DEFAULT_VEHTYPE" speedFactor="0.85" vaporized=""/>
    <tripinfo id="64" depart="231.00" departLane="668307639#0_0" departPos="5.10" departSpeed="0.00" departDelay="0.60" arrival="277.00" arrivalLane="778823268#0_0" arrivalPos="238.22" arrivalSpeed="13.14" duration="46.00" routeLength="503.37" waitingTime="0.00" waitingCount="0" stopTime="0.00" timeLoss="10.21" rerouteNo="0" devices="tripinfo_64" vType="DEFAULT_VEHTYPE" speedFactor="0.97" vaporized=""/>
    <tripinfo id="72" depart="260.00" departLane="232079775#2_0" departPos="5.10" departSpeed="0.00" departDelay="0.80" arrival="291.00" arrivalLane="119238385#0_0" arrivalPos="144.87" arrivalSpeed="14.48" duration="31.00" routeLength="347.78" waitingTime="0.00" waitingCount="0" stopTime="0.00" timeLoss="8.19" rerouteNo="0" devices="tripinfo_72" vType="DEFAULT_VEHTYPE" speedFactor="1.10" vaporized=""/>
    <tripinfo id="70" depart="252.00" departLane="232079775#2_0" departPos="5.10" departSpeed="0.00" departDelay="0.00" arrival="296.00" arrivalLane="668307633#3_0" arrivalPos="112.63" arrivalSpeed="13.91" duration="44.00" routeLength="455.41" waitingTime="0.00" waitingCount="0" stopTime="0.00" timeLoss="8.24" rerouteNo="0" devices="tripinfo_70" vType="DEFAULT_VEHTYPE" speedFactor="0.87" vaporized=""/>
    <tripinfo id="76" depart="274.00" departLane="232079775#2_0" departPos="5.10" departSpeed="0.00" departDelay="0.40" arrival="317.00" arrivalLane="668307633#3_0" arrivalPos="112.63" arrivalSpeed="14.18" duration="43.00" routeLength="455.41" waitingTime="0.00" waitingCount="0" stopTime="0.00" timeLoss="9.64" rerouteNo="0" devices="tripinfo_76" vType="DEFAULT_VEHTYPE" speedFactor="0.93" vaporized=""/>
    <tripinfo id="78" depart="281.00" departLane="232079775#2_0" departPos="5.10" departSpeed="0.00" departDelay="0.20" arrival="319.00" arrivalLane="668307633#3_0" arrivalPos="112.63" arrivalSpeed="18.84" duration="38.00" routeLength="455.41" waitingTime="0.00" waitingCount="0" stopTime="0.00" timeLoss="11.47" rerouteNo="0" devices="tripinfo_78" vType="DEFAULT_VEHTYPE" speedFactor="1.18" vaporized=""/>
    <tripinfo id="95" depart="342.00" departLane="232079775#2_0" departPos="5.10" departSpeed="0.00" departDelay="0.00" arrival="376.00" arrivalLane="119238385#0_0" arrivalPos="144.87" arrivalSpeed="11.37" duration="34.00" routeLength="347.78" waitingTime="0.00" waitingCount="0" stopTime="0.00" timeLoss="5.16" rerouteNo="0" devices="tripinfo_95" vType="DEFAULT_VEHTYPE" speedFactor="0.88" vaporized=""/>
    <tripinfo id="98" depart="353.00" departLane="448266581#0_0" departPos="5.10" departSpeed="0.00" departDelay="0.20" arrival="383.00" arrivalLane="119238380#0_0" arrivalPos="135.86" arrivalSpeed="12.94" duration="30.00" routeLength="354.71" waitingTime="0.00" waitingCount="0" stopTime="0.00" timeLoss="5.67" rerouteNo="0" devices="tripinfo_98" vType="DEFAULT_VEHTYPE" speedFactor="0.99" vaporized=""/>
    <tripinfo id="102" depart="368.00" departLane="232079775#2_0" departPos="5.10" departSpeed="0.00" departDelay="0.80" arrival="403.00" arrivalLane="119238385#0_0" arrivalPos="144.87" arrivalSpeed="10.94" duration="35.00" routeLength="347.78" waitingTime="0.00" waitingCount="0" stopTime="0.00" timeLoss="4.35" rerouteNo="0" devices="tripinfo_102" vType="DEFAULT_VEHTYPE" speedFactor="0.83" vaporized=""/>
    <tripinfo id="120" depart="432.00" departLane="232079775#2_0" departPos="5.10" departSpeed="0.00" departDelay="0.00" arrival="471.00" arrivalLane="668307633#3_0" arrivalPos="112.63" arrivalSpeed="16.93" duration="39.00" routeLength="455.41" waitingTime="0.00" waitingCount="0" stopTime="0.00" timeLoss="8.76" rerouteNo="0" devices="tripinfo_120" vType="DEFAULT_VEHTYPE" speedFactor="1.02" vaporized=""/>
    <tripinfo id="132" depart="476.00" departLane="668307639#0_0" departPos="5.10" departSpeed="0.00" departDelay="0.80" arrival="525.00" arrivalLane="778823268#0_0" arrivalPos="238.22" arrivalSpeed="14.19" duration="49.00" routeLength="503.37" waitingTime="6.00" waitingCount="1" stopTime="0.00" timeLoss="16.18" rerouteNo="0" devices="tripinfo_132" vType="DEFAULT_VEHTYPE" speedFactor="1.04" vaporized=""/>
    <tripinfo id="119" depart="429.00" departLane="448266581#0_0" departPos="5.10" departSpeed="0.00" departDelay="0.60" arrival="575.00" arrivalLane="668307633#3_0" arrivalPos="112.63" arrivalSpeed="14.40" duration="146.00" routeLength="489.91" waitingTime="101.00" waitingCount="1" stopTime="0.00" timeLoss="111.58" rerouteNo="0" devices="tripinfo_119" vType="DEFAULT_VEHTYPE" speedFactor="0.87" vaporized=""/>
    <tripinfo id="181" depart="652.00" departLane="448266581#0_0" departPos="5.10" departSpeed="0.00" departDelay="0.40" arrival="685.00" arrivalLane="668307633#3_1" arrivalPos="112.63" arrivalSpeed="16.60" duration="33.00" routeLength="490.12" waitingTime="0.00" waitingCount="0" stopTime="0.00" timeLoss="4.41" rerouteNo="0" devices="tripinfo_181" vType="DEFAULT_VEHTYPE" speedFactor="1.03" vaporized=""/>
    <tripinfo id="63" depart="227.00" departLane="-778823268#1_0" departPos="5.10" departSpeed="0.00" departDelay="0.20" arrival="720.00" arrivalLane="E1_0" arrivalPos="103.00" arrivalSpeed="14.51" duration="493.00" routeLength="369.88" waitingTime="457.00" waitingCount="1" stopTime="0.00" timeLoss="468.15" rerouteNo="0" devices="tripinfo_63" vType="DEFAULT_VEHTYPE" speedFactor="1.10" vaporized=""/>
    <tripinfo id="33" depart="119.00" departLane="-778823268#1_0" departPos="5.10" departSpeed="0.00" departDelay="0.20" arrival="723.00" arrivalLane="119238380#0_0" arrivalPos="135.86" arrivalSpeed="12.75" duration="604.00" routeLength="461.48" waitingTime="556.00" waitingCount="2" stopTime="0.00" timeLoss="567.39" rerouteNo="0" devices="tripinfo_33" vType="DEFAULT_VEHTYPE" speedFactor="0.93" vaporized=""/>
    <tripinfo id="36" depart="130.00" departLane="668307639#0_0" departPos="5.10" departSpeed="0.00" departDelay="0.40" arrival="724.00" arrivalLane="119238385#0_0" arrivalPos="144.87" arrivalSpeed="13.73" duration="594.00" routeLength="556.93" waitingTime="534.00" waitingCount="3" stopTime="0.00" timeLoss="557.82" rerouteNo="0" devices="tripinfo_36" vType="DEFAULT_VEHTYPE" speedFactor="1.08" vaporized=""/>
    <tripinfo id="44" depart="159.00" departLane="-778823268#1_0" departPos="5.10" departSpeed="0.00" departDelay="0.60" arrival="725.00" arrivalLane="119238380#0_0" arrivalPos="135.86" arrivalSpeed="11.26" duration="566.00" routeLength="461.48" waitingTime="512.00" waitingCount="3" stopTime="0.00" timeLoss="528.63" rerouteNo="0" devices="tripinfo_44" vType="DEFAULT_VEHTYPE" speedFactor="0.90" vaporized=""/>
    <tripinfo id="30" depart="108.00" departLane="668307639#0_0" departPos="5.10" departSpeed="0.00" departDelay="0.00" arrival="726.00" arrivalLane="668307633#3_1" arrivalPos="112.63" arrivalSpeed="16.62" duration="618.00" routeLength="623.09" waitingTime="564.00" waitingCount="1" stopTime="0.00" timeLoss="578.66" rerouteNo="0" devices="tripinfo_30" vType="DEFAULT_VEHTYPE" speedFactor="1.04" vaporized=""/>
    <tripinfo id="4" depart="15.00" departLane="232079775#2_0" departPos="5.10" departSpeed="0.00" departDelay="0.60" arrival="728.00" arrivalLane="119238380#0_0" arrivalPos="135.86" arrivalSpeed="11.28" duration="713.00" routeLength="467.31" waitingTime="650.00" waitingCount="4" stopTime="0.00" timeLoss="671.54" rerouteNo="0" devices="tripinfo_4" vType="DEFAULT_VEHTYPE" speedFactor="0.82" vaporized=""/>
    <tripinfo id="45" depart="162.00" departLane="-778823268#1_0" departPos="5.10" departSpeed="0.00" departDelay="0.00" arrival="728.00" arrivalLane="668307633#3_1" arrivalPos="112.63" arrivalSpeed="15.96" duration="566.00" routeLength="595.69" waitingTime="514.00" waitingCount="1" stopTime="0.00" timeLoss="526.27" rerouteNo="0" devices="tripinfo_45" vType="DEFAULT_VEHTYPE" speedFactor="1.02" vaporized=""/>
    <tripinfo id="67" depart="242.00" departLane="-778823268#1_0" departPos="5.10" departSpeed="0.00" departDelay="0.80" arrival="729.00" arrivalLane="44499684#3_0" arrivalPos="84.04" arrivalSpeed="18.14" duration="487.00" routeLength="453.00" waitingTime="443.00" waitingCount="1" stopTime="0.00" timeLoss="459.99" rerouteNo="0" devices="tripinfo_67" vType="DEFAULT_VEHTYPE" speedFactor="1.16" vaporized=""/>
    <tripinfo id="81" depart="292.00" departLane="-778823268#1_0" departPos="5.10" departSpeed="0.00" departDelay="0.40" arrival="732.00" arrivalLane="E1_0" arrivalPos="103.00" arrivalSpeed="12.50" duration="440.00" routeLength="369.88" waitingTime="399.00" waitingCount="1" stopTime="0.00" timeLoss="412.08" rerouteNo="0" devices="tripinfo_81" vType="DEFAULT_VEHTYPE" speedFactor="0.99" vaporized=""/>
    <tripinfo id="62" depart="224.00" departLane="-778823268#1_0" departPos="5.10" departSpeed="0.00" departDelay="0.80" arrival="733.00" arrivalLane="119238385#0_0" arrivalPos="144.87" arrivalSpeed="13.13" duration="509.00" routeLength="522.97" waitingTime="458.00" waitingCount="1" stopTime="0.00" timeLoss="470.93" rerouteNo="0" devices="tripinfo_62" vType="DEFAULT_VEHTYPE" speedFactor="1.00" vaporized=""/>