<?xml version="1.0" encoding="UTF-8"?>

<!-- generated on 2024-08-31 19:12:16 by Eclipse SUMO sumo Version 1.20.0
<configuration xmlns:xsi="http://www.w3.org/2001/XMLSchema-instance" xsi:noNamespaceSchemaLocation="http://sumo.dlr.de/xsd/sumoConfiguration.xsd">

    <input>
        <net-file value="c:\self\School\Master\Disertation\code\RESCO\resco_benchmark\environments/romana/osm.net.xml.gz"/>
        <route-files value="c:\self\School\Master\Disertation\code\RESCO\resco_benchmark\environments/romana/osm.passenger.trips.xml"/>
        <additional-files value="c:\self\School\Master\Disertation\code\RESCO\resco_benchmark\environments/romana/osm.poly.xml.gz"/>
    </input>

    <output>
        <tripinfo-output value="C:\self\School\Master\Disertation\code\RESCO\results\MPLight-tr0-romana-0-mplight-pressure\tripinfo_4.xml"/>
        <tripinfo-output.write-unfinished value="true"/>
    </output>

    <processing>
        <ignore-route-errors value="true"/>
        <time-to-teleport value="-1"/>
    </processing>

    <routing>
        <device.rerouting.adaptation-steps value="18"/>
        <device.rerouting.adaptation-interval value="10"/>
    </routing>

    <report>
        <verbose value="true"/>
        <no-warnings value="True"/>
        <duration-log.statistics value="true"/>
        <no-step-log value="True"/>
    </report>

    <traci_server>
        <remote-port value="64790"/>
    </traci_server>

    <random_number>
        <random value="true"/>
    </random_number>

    <gui_only>
        <gui-settings-file value="c:\self\School\Master\Disertation\code\RESCO\resco_benchmark\environments/romana/osm.view.xml"/>
    </gui_only>

</configuration>
-->

<tripinfos xmlns:xsi="http://www.w3.org/2001/XMLSchema-instance" xsi:noNamespaceSchemaLocation="http://sumo.dlr.de/xsd/tripinfo_file.xsd">
    <tripinfo id="0" depart="0.00" departLane="448266581#0_0" departPos="5.10" departSpeed="0.00" departDelay="0.00" arrival="31.00" arrivalLane="119238380#0_0" arrivalPos="135.86" arrivalSpeed="11.34" duration="31.00" routeLength="354.71" waitingTime="0.00" waitingCount="0" stopTime="0.00" timeLoss="4.30" rerouteNo="0" devices="tripinfo_0" vType="DEFAULT_VEHTYPE" speedFactor="0.90" vaporized=""/>
    <tripinfo id="1" depart="4.00" departLane="232079775#2_0" departPos="5.10" departSpeed="0.00" departDelay="0.40" arrival="32.00" arrivalLane="119238385#0_0" arrivalPos="144.87" arrivalSpeed="15.10" duration="28.00" routeLength="347.78" waitingTime="0.00" waitingCount="0" stopTime="0.00" timeLoss="5.24" rerouteNo="0" devices="tripinfo_1" vType="DEFAULT_VEHTYPE" speedFactor="1.10" vaporized=""/>
    <tripinfo id="2" depart="8.00" departLane="448266581#0_0" departPos="5.10" departSpeed="0.00" departDelay="0.80" arrival="72.00" arrivalLane="778823268#0_1" arrivalPos="238.22" arrivalSpeed="14.45" duration="64.00" routeLength="550.05" waitingTime="12.00" waitingCount="2" stopTime="0.00" timeLoss="25.67" rerouteNo="0" devices="tripinfo_2" vType="DEFAULT_VEHTYPE" speedFactor="1.04" vaporized=""/>
    <tripinfo id="7" depart="26.00" departLane="448266581#0_0" departPos="5.10" departSpeed="0.00" departDelay="0.80" arrival="96.00" arrivalLane="668307633#3_0" arrivalPos="112.63" arrivalSpeed="16.59" duration="70.00" routeLength="489.91" waitingTime="31.00" waitingCount="1" stopTime="0.00" timeLoss="41.54" rerouteNo="0" devices="tripinfo_7" vType="DEFAULT_VEHTYPE" speedFactor="1.03" vaporized=""/>
    <tripinfo id="3" depart="11.00" departLane="668307639#0_0" departPos="5.10" departSpeed="0.00" departDelay="0.20" arrival="98.00" arrivalLane="119238380#0_0" arrivalPos="135.86" arrivalSpeed="11.20" duration="87.00" routeLength="495.44" waitingTime="35.00" waitingCount="2" stopTime="0.00" timeLoss="49.54" rerouteNo="0" devices="tripinfo_3" vType="DEFAULT_VEHTYPE" speedFactor="0.89" vaporized=""/>
    <tripinfo id="5" depart="18.00" departLane="-778823268#1_0" departPos="5.10" departSpeed="0.00" departDelay="0.00" arrival="99.00" arrivalLane="668307633#3_1" arrivalPos="112.63" arrivalSpeed="17.45" duration="81.00" routeLength="595.69" waitingTime="36.00" waitingCount="1" stopTime="0.00" timeLoss="44.09" rerouteNo="0" devices="tripinfo_5" vType="DEFAULT_VEHTYPE" speedFactor="1.11" vaporized=""/>
    <tripinfo id="4" depart="15.00" departLane="232079775#2_0" departPos="5.10" departSpeed="0.00" departDelay="0.60" arrival="100.00" arrivalLane="119238380#0_0" arrivalPos="135.86" arrivalSpeed="14.33" duration="85.00" routeLength="467.31" waitingTime="28.00" waitingCount="3" stopTime="0.00" timeLoss="53.22" rerouteNo="0" devices="tripinfo_4" vType="DEFAULT_VEHTYPE" speedFactor="1.09" vaporized=""/>
    <tripinfo id="6" depart="22.00" departLane="-778823268#1_0" departPos="5.10" departSpeed="0.00" departDelay="0.40" arrival="100.00" arrivalLane="119238385#0_0" arrivalPos="144.87" arrivalSpeed="14.18" duration="78.00" routeLength="522.97" waitingTime="30.00" waitingCount="1" stopTime="0.00" timeLoss="40.22" rerouteNo="0" devices="tripinfo_6" vType="DEFAULT_VEHTYPE" speedFactor="1.03" vaporized=""/>
    <tripinfo id="10" depart="36.00" departLane="668307639#0_0" departPos="5.10" departSpeed="0.00" departDelay="0.00" arrival="100.00" arrivalLane="778823268#0_0" arrivalPos="238.22" arrivalSpeed="13.03" duration="64.00" routeLength="503.37" waitingTime="19.00" waitingCount="1" stopTime="0.00" timeLoss="30.30" rerouteNo="0" devices="tripinfo_10" vType="DEFAULT_VEHTYPE" speedFactor="1.02" vaporized=""/>
    <tripinfo id="13" depart="47.00" departLane="-778823268#1_0" departPos="5.10" departSpeed="0.00" departDelay="0.20" arrival="104.00" arrivalLane="119238380#0_0" arrivalPos="135.86" arrivalSpeed="11.18" duration="57.00" routeLength="461.48" waitingTime="6.00" waitingCount="1" stopTime="0.00" timeLoss="15.44" rerouteNo="0" devices="tripinfo_13" vType="DEFAULT_VEHTYPE" speedFactor="0.82" vaporized=""/>
    <tripinfo id="15" depart="54.00" departLane="668307639#0_0" departPos="5.10" departSpeed="0.00" departDelay="0.00" arrival="104.00" arrivalLane="778823268#0_0" arrivalPos="238.22" arrivalSpeed="13.49" duration="50.00" routeLength="503.37" waitingTime="3.00" waitingCount="1" stopTime="0.00" timeLoss="15.33" rerouteNo="0" devices="tripinfo_15" vType="DEFAULT_VEHTYPE" speedFactor="1.01" vaporized=""/>
    <tripinfo id="8" depart="29.00" departLane="-778823268#1_0" departPos="5.10" departSpeed="0.00" departDelay="0.20" arrival="105.00" arrivalLane="668307633#3_1" arrivalPos="112.63" arrivalSpeed="14.65" duration="76.00" routeLength="595.69" waitingTime="23.00" waitingCount="1" stopTime="0.00" timeLoss="33.00" rerouteNo="0" devices="tripinfo_8" vType="DEFAULT_VEHTYPE" speedFactor="0.95" vaporized=""/>
    <tripinfo id="11" depart="40.00" departLane="232079775#2_0" departPos="5.10" departSpeed="0.00" departDelay="0.40" arrival="105.00" arrivalLane="119238380#0_0" arrivalPos="135.86" arrivalSpeed="13.32" duration="65.00" routeLength="467.31" waitingTime="18.00" waitingCount="1" stopTime="0.00" timeLoss="31.26" rerouteNo="0" devices="tripinfo_11" vType="DEFAULT_VEHTYPE" speedFactor="1.01" vaporized=""/>
    <tripinfo id="17" depart="62.00" departLane="232079775#2_0" departPos="5.10" departSpeed="0.00" departDelay="0.80" arrival="105.00" arrivalLane="668307633#3_0" arrivalPos="112.63" arrivalSpeed="14.74" duration="43.00" routeLength="455.41" waitingTime="0.00" waitingCount="0" stopTime="0.00" timeLoss="9.56" rerouteNo="0" devices="tripinfo_17" vType="DEFAULT_VEHTYPE" speedFactor="0.93" vaporized=""/>
    <tripinfo id="9" depart="33.00" departLane="668307639#0_0" departPos="5.10" departSpeed="0.00" departDelay="0.60" arrival="111.00" arrivalLane="119238380#0_0" arrivalPos="135.86" arrivalSpeed="13.49" duration="78.00" routeLength="495.44" waitingTime="33.00" waitingCount="2" stopTime="0.00" timeLoss="44.92" rerouteNo="0" devices="tripinfo_9" vType="DEFAULT_VEHTYPE" speedFactor="1.02" vaporized=""/>
    <tripinfo id="14" depart="51.00" departLane="668307639#0_0" departPos="5.10" departSpeed="0.00" departDelay="0.60" arrival="111.00" arrivalLane="668307633#3_1" arrivalPos="112.63" arrivalSpeed="16.37" duration="60.00" routeLength="623.09" waitingTime="6.00" waitingCount="1" stopTime="0.00" timeLoss="18.04" rerouteNo="0" devices="tripinfo_14" vType="DEFAULT_VEHTYPE" speedFactor="0.99" vaporized=""/>
    <tripinfo id="12" depart="44.00" departLane="668307639#0_0" departPos="5.10" departSpeed="0.00" departDelay="0.80" arrival="118.00" arrivalLane="44499684#3_0" arrivalPos="84.04" arrivalSpeed="16.63" duration="74.00" routeLength="486.19" waitingTime="29.00" waitingCount="2" stopTime="0.00" timeLoss="45.26" rerouteNo="0" devices="tripinfo_12" vType="DEFAULT_VEHTYPE" speedFactor="1.07" vaporized=""/>
    <tripinfo id="16" depart="58.00" departLane="448266581#0_0" departPos="5.10" departSpeed="0.00" departDelay="0.40" arrival="119.00" arrivalLane="E1_1" arrivalPos="103.00" arrivalSpeed="15.56" duration="61.00" routeLength="446.50" waitingTime="20.00" waitingCount="1" stopTime="0.00" timeLoss="33.67" rerouteNo="0" devices="tripinfo_16" vType="DEFAULT_VEHTYPE" speedFactor="1.17" vaporized=""/>
    <tripinfo id="21" depart="76.00" departLane="-778823268#1_0" departPos="5.10" departSpeed="0.00" departDelay="0.40" arrival="119.00" arrivalLane="119238385#0_0" arrivalPos="144.87" arrivalSpeed="13.68" duration="43.00" routeLength="522.97" waitingTime="0.00" waitingCount="0" stopTime="0.00" timeLoss="5.99" rerouteNo="0" devices="tripinfo_21" vType="DEFAULT_VEHTYPE" speedFactor="1.06" vaporized=""/>
    <tripinfo id="20" depart="72.00" departLane="448266581#0_0" departPos="5.10" departSpeed="0.00" departDelay="0.00" arrival="120.00" arrivalLane="119238380#0_0" arrivalPos="135.86" arrivalSpeed="14.44" duration="48.00" routeLength="354.71" waitingTime="15.00" waitingCount="1" stopTime="0.00" timeLoss="24.88" rerouteNo="0" devices="tripinfo_20" vType="DEFAULT_VEHTYPE" speedFactor="1.08" vaporized=""/>
    <tripinfo id="25" depart="90.00" departLane="232079775#2_0" departPos="5.10" departSpeed="0.00" departDelay="0.00" arrival="130.00" arrivalLane="119238385#0_0" arrivalPos="144.87" arrivalSpeed="12.56" duration="40.00" routeLength="347.78" waitingTime="3.00" waitingCount="1" stopTime="0.00" timeLoss="12.56" rerouteNo="0" devices="tripinfo_25" vType="DEFAULT_VEHTYPE" speedFactor="0.92" vaporized=""/>
    <tripinfo id="24" depart="87.00" departLane="448266581#0_0" departPos="5.10" departSpeed="0.00" departDelay="0.60" arrival="136.00" arrivalLane="44499684#3_2" arrivalPos="84.04" arrivalSpeed="13.85" duration="49.00" routeLength="510.14" waitingTime="0.00" waitingCount="0" stopTime="0.00" timeLoss="8.80" rerouteNo="0" devices="tripinfo_24" vType="DEFAULT_VEHTYPE" speedFactor="0.88" vaporized=""/>
    <tripinfo id="26" depart="94.00" departLane="232079775#2_0" departPos="5.10" departSpeed="0.00" departDelay="0.40" arrival="143.00" arrivalLane="E1_1" arrivalPos="103.00" arrivalSpeed="10.92" duration="49.00" routeLength="382.90" waitingTime="5.00" waitingCount="1" stopTime="0.00" timeLoss="16.61" rerouteNo="0" devices="tripinfo_26" vType="DEFAULT_VEHTYPE" speedFactor="0.88" vaporized=""/>
    <tripinfo id="29" depart="105.00" departLane="-778823268#1_0" departPos="5.10" departSpeed="0.00" departDelay="0.60" arrival="144.00" arrivalLane="44499684#3_0" arrivalPos="84.04" arrivalSpeed="15.51" duration="39.00" routeLength="453.00" waitingTime="0.00" waitingCount="0" stopTime="0.00" timeLoss="8.30" rerouteNo="0" devices="tripinfo_29" vType="DEFAULT_VEHTYPE" speedFactor="1.00" vaporized=""/>
    <tripinfo id="22" depart="80.00" departLane="-778823268#1_0" departPos="5.10" departSpeed="0.00" departDelay="0.80" arrival="151.00" arrivalLane="119238385#0_0" arrivalPos="144.87" arrivalSpeed="12.23" duration="71.00" routeLength="522.97" waitingTime="20.00" waitingCount="1" stopTime="0.00" timeLoss="30.45" rerouteNo="0" devices="tripinfo_22" vType="DEFAULT_VEHTYPE" speedFactor="0.97" vaporized=""/>
    <tripinfo id="23" depart="83.00" departLane="-778823268#1_0" departPos="5.10" departSpeed="0.00" departDelay="0.20" arrival="152.00" arrivalLane="119238385#0_0" arrivalPos="144.87" arrivalSpeed="13.72" duration="69.00" routeLength="522.97" waitingTime="18.00" waitingCount="1" stopTime="0.00" timeLoss="33.35" rerouteNo="0" devices="tripinfo_23" vType="DEFAULT_VEHTYPE" speedFactor="1.08" vaporized=""/>
    <tripinfo id="34" depart="123.00" departLane="232079775#2_0" departPos="5.10" departSpeed="0.00" departDelay="0.60" arrival="155.00" arrivalLane="119238385#0_0" arrivalPos="144.87" arrivalSpeed="14.76" duration="32.00" routeLength="347.78" waitingTime="0.00" waitingCount="0" stopTime="0.00" timeLoss="9.02" rerouteNo="0" devices="tripinfo_34" vType="DEFAULT_VEHTYPE" speedFactor="1.10" vaporized=""/>
    <tripinfo id="33" depart="119.00" departLane="-778823268#1_0" departPos="5.10" departSpeed="0.00" departDelay="0.20" arrival="158.00" arrivalLane="119238380#0_0" arrivalPos="135.86" arrivalSpeed="13.23" duration="39.00" routeLength="461.48" waitingTime="0.00" waitingCount="0" stopTime="0.00" timeLoss="4.54" rerouteNo="0" devices="tripinfo_33" vType="DEFAULT_VEHTYPE" speedFactor="0.97" vaporized=""/>
    <tripinfo id="35" depart="126.00" departLane="-778823268#1_0" departPos="5.10" departSpeed="0.00" departDelay="0.00" arrival="161.00" arrivalLane="E1_0" arrivalPos="103.00" arrivalSpeed="12.50" duration="35.00" routeLength="369.88" waitingTime="0.00" waitingCount="0" stopTime="0.00" timeLoss="5.50" rerouteNo="0" devices="tripinfo_35" vType="DEFAULT_VEHTYPE" speedFactor="0.94" vaporized=""/>
    <tripinfo id="32" depart="116.00" departLane="668307639#0_0" departPos="5.10" departSpeed="0.00" departDelay="0.80" arrival="163.00" arrivalLane="778823268#0_0" arrivalPos="238.22" arrivalSpeed="11.67" duration="47.00" routeLength="503.37" waitingTime="0.00" waitingCount="0" stopTime="0.00" timeLoss="8.71" rerouteNo="0" devices="tripinfo_32" vType="DEFAULT_VEHTYPE" speedFactor="0.90" vaporized=""/>
    <tripinfo id="39" depart="141.00" departLane="232079775#2_0" departPos="5.10" departSpeed="0.00" departDelay="0.60" arrival="171.00" arrivalLane="119238385#0_0" arrivalPos="144.87" arrivalSpeed="14.93" duration="30.00" routeLength="347.78" waitingTime="0.00" waitingCount="0" stopTime="0.00" timeLoss="6.71" rerouteNo="0" devices="tripinfo_39" vType="DEFAULT_VEHTYPE" speedFactor="1.09" vaporized=""/>
    <tripinfo id="31" depart="112.00" departLane="448266581#0_0" departPos="5.10" departSpeed="0.00" departDelay="0.40" arrival="172.00" arrivalLane="778823268#0_0" arrivalPos="238.22" arrivalSpeed="14.87" duration="60.00" routeLength="550.05" waitingTime="11.00" waitingCount="1" stopTime="0.00" timeLoss="23.42" rerouteNo="0" devices="tripinfo_31" vType="DEFAULT_VEHTYPE" speedFactor="1.09" vaporized=""/>
    <tripinfo id="28" depart="101.00" departLane="-778823268#1_0" departPos="5.10" departSpeed="0.00" departDelay="0.20" arrival="174.00" arrivalLane="778823268#0_0" arrivalPos="238.22" arrivalSpeed="13.57" duration="73.00" routeLength="655.26" waitingTime="4.00" waitingCount="2" stopTime="0.00" timeLoss="23.39" rerouteNo="0" devices="tripinfo_28" vType="DEFAULT_VEHTYPE" speedFactor="1.00" vaporized=""/>
    <tripinfo id="42" depart="152.00" departLane="232079775#2_0" departPos="5.10" departSpeed="0.00" departDelay="0.80" arrival="180.00" arrivalLane="119238385#0_0" arrivalPos="144.87" arrivalSpeed="15.80" duration="28.00" routeLength="347.78" waitingTime="0.00" waitingCount="0" stopTime="0.00" timeLoss="6.33" rerouteNo="0" devices="tripinfo_42" vType="DEFAULT_VEHTYPE" speedFactor="1.20" vaporized=""/>
    <tripinfo id="38" depart="137.00" departLane="668307639#0_0" departPos="5.10" departSpeed="0.00" departDelay="0.20" arrival="196.00" arrivalLane="44499684#3_0" arrivalPos="84.04" arrivalSpeed="16.56" duration="59.00" routeLength="485.82" waitingTime="20.00" waitingCount="1" stopTime="0.00" timeLoss="29.49" rerouteNo="0" devices="tripinfo_38" vType="DEFAULT_VEHTYPE" speedFactor="1.02" vaporized=""/>
    <tripinfo id="18" depart="65.00" departLane="668307639#0_0" departPos="5.10" departSpeed="0.00" departDelay="0.20" arrival="197.00" arrivalLane="668307633#3_0" arrivalPos="112.63" arrivalSpeed="16.55" duration="132.00" routeLength="623.09" waitingTime="75.00" waitingCount="1" stopTime="0.00" timeLoss="91.24" rerouteNo="0" devices="tripinfo_18" vType="DEFAULT_VEHTYPE" speedFactor="1.00" vaporized=""/>
    <tripinfo id="27" depart="98.00" departLane="448266581#0_0" departPos="5.10" departSpeed="0.00" departDelay="0.80" arrival="197.00" arrivalLane="668307633#3_1" arrivalPos="112.63" arrivalSpeed="16.69" duration="99.00" routeLength="489.91" waitingTime="59.00" waitingCount="1" stopTime="0.00" timeLoss="70.80" rerouteNo="0" devices="tripinfo_27" vType="DEFAULT_VEHTYPE" speedFactor="1.07" vaporized=""/>
    <tripinfo id="40" depart="144.00" departLane="448266581#0_0" departPos="5.10" departSpeed="0.00" departDelay="0.00" arrival="199.00" arrivalLane="119238385#0_0" arrivalPos="144.87" arrivalSpeed="13.98" duration="55.00" routeLength="417.71" waitingTime="17.00" waitingCount="1" stopTime="0.00" timeLoss="27.73" rerouteNo="0" devices="tripinfo_40" vType="DEFAULT_VEHTYPE" speedFactor="1.06" vaporized=""/>
    <tripinfo id="19" depart="69.00" departLane="668307639#0_0" departPos="5.10" departSpeed="0.00" departDelay="0.60" arrival="201.00" arrivalLane="668307633#3_2" arrivalPos="112.63" arrivalSpeed="12.54" duration="132.00" routeLength="625.14" waitingTime="63.00" waitingCount="2" stopTime="0.00" timeLoss="81.97" rerouteNo="0" devices="tripinfo_19" vType="DEFAULT_VEHTYPE" speedFactor="0.81" vaporized=""/>
    <tripinfo id="30" depart="108.00" departLane="668307639#0_0" departPos="5.10" departSpeed="0.00" departDelay="0.00" arrival="201.00" arrivalLane="668307633#3_1" arrivalPos="112.63" arrivalSpeed="14.29" duration="93.00" routeLength="623.09" waitingTime="31.00" waitingCount="1" stopTime="0.00" timeLoss="47.38" rerouteNo="0" devices="tripinfo_30" vType="DEFAULT_VEHTYPE" speedFactor="0.89" vaporized=""/>
    <tripinfo id="46" depart="166.00" departLane="668307639#0_0" departPos="5.10" departSpeed="0.00" departDelay="0.40" arrival="203.00" arrivalLane="44499684#3_0" arrivalPos="84.04" arrivalSpeed="15.82" duration="37.00" routeLength="485.82" waitingTime="0.00" waitingCount="0" stopTime="0.00" timeLoss="4.89" rerouteNo="0" devices="tripinfo_46" vType="DEFAULT_VEHTYPE" speedFactor="0.95" vaporized=""/>
    <tripinfo id="47" depart="170.00" departLane="-778823268#1_0" departPos="5.10" departSpeed="0.00" departDelay="0.80" arrival="214.00" arrivalLane="44499684#3_0" arrivalPos="84.04" arrivalSpeed="13.91" duration="44.00" routeLength="453.00" waitingTime="0.00" waitingCount="0" stopTime="0.00" timeLoss="7.27" rerouteNo="0" devices="tripinfo_47" vType="DEFAULT_VEHTYPE" speedFactor="0.84" vaporized=""/>
    <tripinfo id="44" depart="159.00" departLane="-778823268#1_0" departPos="5.10" departSpeed="0.00" departDelay="0.60" arrival="219.00" arrivalLane="119238380#0_0" arrivalPos="135.86" arrivalSpeed="15.12" duration="60.00" routeLength="461.48" waitingTime="18.00" waitingCount="1" stopTime="0.00" timeLoss="29.65" rerouteNo="0" devices="tripinfo_44" vType="DEFAULT_VEHTYPE" speedFactor="1.13" vaporized=""/>
    <tripinfo id="49" depart="177.00" departLane="668307639#0_0" departPos="5.10" departSpeed="0.00" departDelay="0.60" arrival="223.00" arrivalLane="E1_1" arrivalPos="103.00" arrivalSpeed="13.00" duration="46.00" routeLength="411.03" waitingTime="4.00" waitingCount="1" stopTime="0.00" timeLoss="16.47" rerouteNo="0" devices="tripinfo_49" vType="DEFAULT_VEHTYPE" speedFactor="0.95" vaporized=""/>
    <tripinfo id="36" depart="130.00" departLane="668307639#0_0" departPos="5.10" departSpeed="0.00" departDelay="0.40" arrival="228.00" arrivalLane="119238385#0_0" arrivalPos="144.87" arrivalSpeed="12.26" duration="98.00" routeLength="556.93" waitingTime="34.00" waitingCount="2" stopTime="0.00" timeLoss="57.75" rerouteNo="0" devices="tripinfo_36" vType="DEFAULT_VEHTYPE" speedFactor="0.96" vaporized=""/>
    <tripinfo id="45" depart="162.00" departLane="-778823268#1_0" departPos="5.10" departSpeed="0.00" departDelay="0.00" arrival="230.00" arrivalLane="668307633#3_1" arrivalPos="112.63" arrivalSpeed="13.44" duration="68.00" routeLength="595.69" waitingTime="10.00" waitingCount="1" stopTime="0.00" timeLoss="20.03" rerouteNo="0" devices="tripinfo_45" vType="DEFAULT_VEHTYPE" speedFactor="0.85" vaporized=""/>
    <tripinfo id="53" depart="191.00" departLane="-778823268#1_0" departPos="5.10" departSpeed="0.00" departDelay="0.20" arrival="231.00" arrivalLane="44499684#3_0" arrivalPos="84.04" arrivalSpeed="14.96" duration="40.00" routeLength="453.00" waitingTime="0.00" waitingCount="0" stopTime="0.00" timeLoss="7.17" rerouteNo="0" devices="tripinfo_53" vType="DEFAULT_VEHTYPE" speedFactor="0.96" vaporized=""/>
    <tripinfo id="43" depart="155.00" departLane="668307639#0_0" departPos="5.10" departSpeed="0.00" departDelay="0.20" arrival="232.00" arrivalLane="668307633#3_1" arrivalPos="112.63" arrivalSpeed="13.30" duration="77.00" routeLength="625.14" waitingTime="9.00" waitingCount="1" stopTime="0.00" timeLoss="28.69" rerouteNo="0" devices="tripinfo_43" vType="DEFAULT_VEHTYPE" speedFactor="0.84" vaporized=""/>
    <tripinfo id="48" depart="173.00" departLane="668307639#0_0" departPos="5.10" departSpeed="0.00" departDelay="0.20" arrival="234.00" arrivalLane="668307633#3_1" arrivalPos="112.63" arrivalSpeed="14.43" duration="61.00" routeLength="623.09" waitingTime="2.00" waitingCount="1" stopTime="0.00" timeLoss="15.38" rerouteNo="0" devices="tripinfo_48" vType="DEFAULT_VEHTYPE" speedFactor="0.90" vaporized=""/>
    <tripinfo id="52" depart="188.00" departLane="232079775#2_0" departPos="5.10" departSpeed="0.00" departDelay="0.80" arrival="234.00" arrivalLane="668307633#3_0" arrivalPos="112.63" arrivalSpeed="12.50" duration="46.00" routeLength="455.41" waitingTime="0.00" waitingCount="0" stopTime="0.00" timeLoss="8.23" rerouteNo="0" devices="tripinfo_52" vType="DEFAULT_VEHTYPE" speedFactor="0.81" vaporized=""/>
    <tripinfo id="57" depart="206.00" departLane="668307639#0_0" departPos="5.10" departSpeed="0.00" departDelay="0.80" arrival="246.00" arrivalLane="E1_1" arrivalPos="103.00" arrivalSpeed="10.45" duration="40.00" routeLength="411.03" waitingTime="0.00" waitingCount="0" stopTime="0.00" timeLoss="6.60" rerouteNo="0" devices="tripinfo_57" vType="DEFAULT_VEHTYPE" speedFactor="0.84" vaporized=""/>
    <tripinfo id="58" depart="209.00" departLane="232079775#2_0" departPos="5.10" departSpeed="0.00" departDelay="0.20" arrival="249.00" arrivalLane="668307633#3_0" arrivalPos="112.63" arrivalSpeed="15.99" duration="40.00" routeLength="455.41" waitingTime="0.00" waitingCount="0" stopTime="0.00" timeLoss="9.16" rerouteNo="0" devices="tripinfo_58" vType="DEFAULT_VEHTYPE" speedFactor="1.01" vaporized=""/>
    <tripinfo id="59" depart="213.00" departLane="448266581#0_0" departPos="5.10" departSpeed="0.00" departDelay="0.60" arrival="249.00" arrivalLane="119238380#0_0" arrivalPos="135.86" arrivalSpeed="11.96" duration="36.00" routeLength="354.71" waitingTime="0.00" waitingCount="0" stopTime="0.00" timeLoss="8.90" rerouteNo="0" devices="tripinfo_59" vType="DEFAULT_VEHTYPE" speedFactor="0.91" vaporized=""/>
    <tripinfo id="51" depart="184.00" departLane="448266581#0_0" departPos="5.10" departSpeed="0.00" departDelay="0.40" arrival="252.00" arrivalLane="668307633#3_0" arrivalPos="112.63" arrivalSpeed="15.63" duration="68.00" routeLength="489.91" waitingTime="27.00" waitingCount="1" stopTime="0.00" timeLoss="36.13" rerouteNo="0" devices="tripinfo_51" vType="DEFAULT_VEHTYPE" speedFactor="0.94" vaporized=""/>
    <tripinfo id="56" depart="202.00" departLane="448266581#0_0" departPos="5.10" departSpeed="0.00" departDelay="0.40" arrival="255.00" arrivalLane="119238385#0_0" arrivalPos="144.87" arrivalSpeed="14.61" duration="53.00" routeLength="417.71" waitingTime="12.00" waitingCount="2" stopTime="0.00" timeLoss="25.15" rerouteNo="0" devices="tripinfo_56" vType="DEFAULT_VEHTYPE" speedFactor="1.08" vaporized=""/>
    <tripinfo id="63" depart="227.00" departLane="-778823268#1_0" departPos="5.10" departSpeed="0.00" departDelay="0.20" arrival="260.00" arrivalLane="E1_0" arrivalPos="103.00" arrivalSpeed="15.20" duration="33.00" routeLength="369.88" waitingTime="0.00" waitingCount="0" stopTime="0.00" timeLoss="8.74" rerouteNo="0" devices="tripinfo_63" vType="DEFAULT_VEHTYPE" speedFactor="1.13" vaporized=""/>
    <tripinfo id="64" depart="231.00" departLane="668307639#0_0" departPos="5.10" departSpeed="0.00" departDelay="0.60" arrival="275.00" arrivalLane="778823268#0_0" arrivalPos="238.22" arrivalSpeed="14.33" duration="44.00" routeLength="503.37" waitingTime="0.00" waitingCount="0" stopTime="0.00" timeLoss="11.52" rerouteNo="0" devices="tripinfo_64" vType="DEFAULT_VEHTYPE" speedFactor="1.08" vaporized=""/>
    <tripinfo id="66" depart="238.00" departLane="668307639#0_0" departPos="5.10" departSpeed="0.00" departDelay="0.40" arrival="281.00" arrivalLane="E1_1" arrivalPos="103.00" arrivalSpeed="11.63" duration="43.00" routeLength="411.03" waitingTime="1.00" waitingCount="1" stopTime="0.00" timeLoss="12.16" rerouteNo="0" devices="tripinfo_66" vType="DEFAULT_VEHTYPE" speedFactor="0.90" vaporized=""/>
    <tripinfo id="67" depart="242.00" departLane="-778823268#1_0" departPos="5.10" departSpeed="0.00" departDelay="0.80" arrival="285.00" arrivalLane="44499684#3_0" arrivalPos="84.04" arrivalSpeed="15.00" duration="43.00" routeLength="453.00" waitingTime="0.00" waitingCount="0" stopTime="0.00" timeLoss="7.67" rerouteNo="0" devices="tripinfo_67" vType="DEFAULT_VEHTYPE" speedFactor="0.91" vaporized=""/>
    <tripinfo id="70" depart="252.00" departLane="232079775#2_0" departPos="5.10" departSpeed="0.00" departDelay="0.00" arrival="290.00" arrivalLane="668307633#3_0" arrivalPos="112.63" arrivalSpeed="16.65" duration="38.00" routeLength="455.41" waitingTime="0.00" waitingCount="0" stopTime="0.00" timeLoss="8.73" rerouteNo="0" devices="tripinfo_70" vType="DEFAULT_VEHTYPE" speedFactor="1.05" vaporized=""/>
    <tripinfo id="72" depart="260.00" departLane="232079775#2_0" departPos="5.10" departSpeed="0.00" departDelay="0.80" arrival="294.00" arrivalLane="119238385#0_0" arrivalPos="144.87" arrivalSpeed="11.66" duration="34.00" routeLength="347.78" waitingTime="0.00" waitingCount="0" stopTime="0.00" timeLoss="5.01" rerouteNo="0" devices="tripinfo_72" vType="DEFAULT_VEHTYPE" speedFactor="0.89" vaporized=""/>
    <tripinfo id="76" depart="274.00" departLane="232079775#2_0" departPos="5.10" departSpeed="0.00" departDelay="0.40" arrival="310.00" arrivalLane="668307633#3_0" arrivalPos="112.63" arrivalSpeed="18.10" duration="36.00" routeLength="455.41" waitingTime="0.00" waitingCount="0" stopTime="0.00" timeLoss="8.41" rerouteNo="0" devices="tripinfo_76" vType="DEFAULT_VEHTYPE" speedFactor="1.11" vaporized=""/>
    <tripinfo id="37" depart="134.00" departLane="448266581#0_0" departPos="5.10" departSpeed="0.00" departDelay="0.80" arrival="315.00" arrivalLane="44499684#3_1" arrivalPos="84.04" arrivalSpeed="18.63" duration="181.00" routeLength="512.41" waitingTime="134.00" waitingCount="2" stopTime="0.00" timeLoss="150.61" rerouteNo="0" devices="tripinfo_37" vType="DEFAULT_VEHTYPE" speedFactor="1.14" vaporized=""/>
    <tripinfo id="41" depart="148.00" departLane="448266581#0_0" departPos="5.10" departSpeed="0.00" departDelay="0.40" arrival="317.00" arrivalLane="E1_1" arrivalPos="103.00" arrivalSpeed="13.01" duration="169.00" routeLength="448.81" waitingTime="118.00" waitingCount="2" stopTime="0.00" timeLoss="134.67" rerouteNo="0" devices="tripinfo_41" vType="DEFAULT_VEHTYPE" speedFactor="0.95" vaporized=""/>
    <tripinfo id="78" depart="281.00" departLane="232079775#2_0" departPos="5.10" departSpeed="0.00" departDelay="0.20" arrival="321.00" arrivalLane="668307633#3_0" arrivalPos="112.63" arrivalSpeed="15.41" duration="40.00" routeLength="455.41" waitingTime="0.00" waitingCount="0" stopTime="0.00" timeLoss="8.75" rerouteNo="0" devices="tripinfo_78" vType="DEFAULT_VEHTYPE" speedFactor="1.00" vaporized=""/>
    <tripinfo id="50" depart="180.00" departLane="-778823268#1_0" departPos="5.10" departSpeed="0.00" departDelay="0.00" arrival="355.00" arrivalLane="778823268#0_0" arrivalPos="238.22" arrivalSpeed="12.03" duration="175.00" routeLength="655.26" waitingTime="98.00" waitingCount="2" stopTime="0.00" timeLoss="123.45" rerouteNo="0" devices="tripinfo_50" vType="DEFAULT_VEHTYPE" speedFactor="0.96" vaporized=""/>
    <tripinfo id="95" depart="342.00" departLane="232079775#2_0" departPos="5.10" departSpeed="0.00" departDelay="0.00" arrival="378.00" arrivalLane="119238385#0_0" arrivalPos="144.87" arrivalSpeed="10.74" duration="36.00" routeLength="347.78" waitingTime="0.00" waitingCount="0" stopTime="0.00" timeLoss="5.67" rerouteNo="0" devices="tripinfo_95" vType="DEFAULT_VEHTYPE" speedFactor="0.83" vaporized=""/>
    <tripinfo id="98" depart="353.00" departLane="448266581#0_0" departPos="5.10" departSpeed="0.00" departDelay="0.20" arrival="384.00" arrivalLane="119238380#0_0" arrivalPos="135.86" arrivalSpeed="12.87" duration="31.00" routeLength="354.71" waitingTime="0.00" waitingCount="0" stopTime="0.00" timeLoss="5.00" rerouteNo="0" devices="tripinfo_98" vType="DEFAULT_VEHTYPE" speedFactor="0.93" vaporized=""/>
    <tripinfo id="69" depart="249.00" departLane="668307639#0_0" departPos="5.10" departSpeed="0.00" departDelay="0.60" arrival="400.00" arrivalLane="119238380#0_0" arrivalPos="135.86" arrivalSpeed="13.87" duration="151.00" routeLength="495.44" waitingTime="97.00" waitingCount="4" stopTime="0.00" timeLoss="118.85" rerouteNo="0" devices="tripinfo_69" vType="DEFAULT_VEHTYPE" speedFactor="1.05" vaporized=""/>