<?xml version="1.0" encoding="UTF-8"?>

<!-- generated on 2024-08-31 19:19:52 by Eclipse SUMO sumo Version 1.20.0
<configuration xmlns:xsi="http://www.w3.org/2001/XMLSchema-instance" xsi:noNamespaceSchemaLocation="http://sumo.dlr.de/xsd/sumoConfiguration.xsd">

    <input>
        <net-file value="c:\self\School\Master\Disertation\code\RESCO\resco_benchmark\environments/romana/osm.net.xml.gz"/>
        <route-files value="c:\self\School\Master\Disertation\code\RESCO\resco_benchmark\environments/romana/osm.passenger.trips.xml"/>
        <additional-files value="c:\self\School\Master\Disertation\code\RESCO\resco_benchmark\environments/romana/osm.poly.xml.gz"/>
    </input>

    <output>
        <tripinfo-output value="C:\self\School\Master\Disertation\code\RESCO\results\MPLight-tr0-romana-0-mplight-pressure\tripinfo_72.xml"/>
        <tripinfo-output.write-unfinished value="true"/>
    </output>

    <processing>
        <ignore-route-errors value="true"/>
        <time-to-teleport value="-1"/>
    </processing>

    <routing>
        <device.rerouting.adaptation-steps value="18"/>
        <device.rerouting.adaptation-interval value="10"/>
    </routing>

    <report>
        <verbose value="true"/>
        <no-warnings value="True"/>
        <duration-log.statistics value="true"/>
        <no-step-log value="True"/>
    </report>

    <traci_server>
        <remote-port value="58730"/>
    </traci_server>

    <random_number>
        <random value="true"/>
    </random_number>

    <gui_only>
        <gui-settings-file value="c:\self\School\Master\Disertation\code\RESCO\resco_benchmark\environments/romana/osm.view.xml"/>
    </gui_only>

</configuration>
-->

<tripinfos xmlns:xsi="http://www.w3.org/2001/XMLSchema-instance" xsi:noNamespaceSchemaLocation="http://sumo.dlr.de/xsd/tripinfo_file.xsd">
    <tripinfo id="1" depart="4.00" departLane="232079775#2_0" departPos="5.10" departSpeed="0.00" departDelay="0.40" arrival="38.00" arrivalLane="119238385#0_0" arrivalPos="144.87" arrivalSpeed="10.91" duration="34.00" routeLength="347.78" waitingTime="0.00" waitingCount="0" stopTime="0.00" timeLoss="5.07" rerouteNo="0" devices="tripinfo_1" vType="DEFAULT_VEHTYPE" speedFactor="0.88" vaporized=""/>
    <tripinfo id="0" depart="0.00" departLane="448266581#0_0" departPos="5.10" departSpeed="0.00" departDelay="0.00" arrival="45.00" arrivalLane="119238380#0_0" arrivalPos="135.86" arrivalSpeed="15.15" duration="45.00" routeLength="354.71" waitingTime="10.00" waitingCount="1" stopTime="0.00" timeLoss="22.25" rerouteNo="0" devices="tripinfo_0" vType="DEFAULT_VEHTYPE" speedFactor="1.09" vaporized=""/>
    <tripinfo id="2" depart="8.00" departLane="448266581#0_0" departPos="5.10" departSpeed="0.00" departDelay="0.80" arrival="72.00" arrivalLane="778823268#0_0" arrivalPos="238.22" arrivalSpeed="15.94" duration="64.00" routeLength="547.37" waitingTime="8.00" waitingCount="2" stopTime="0.00" timeLoss="28.98" rerouteNo="0" devices="tripinfo_2" vType="DEFAULT_VEHTYPE" speedFactor="1.15" vaporized=""/>
    <tripinfo id="3" depart="11.00" departLane="668307639#0_0" departPos="5.10" departSpeed="0.00" departDelay="0.20" arrival="75.00" arrivalLane="119238380#0_0" arrivalPos="135.86" arrivalSpeed="10.84" duration="64.00" routeLength="495.44" waitingTime="7.00" waitingCount="2" stopTime="0.00" timeLoss="23.49" rerouteNo="0" devices="tripinfo_3" vType="DEFAULT_VEHTYPE" speedFactor="0.84" vaporized=""/>
    <tripinfo id="6" depart="22.00" departLane="-778823268#1_0" departPos="5.10" departSpeed="0.00" departDelay="0.40" arrival="75.00" arrivalLane="119238385#0_0" arrivalPos="144.87" arrivalSpeed="14.52" duration="53.00" routeLength="522.97" waitingTime="5.00" waitingCount="1" stopTime="0.00" timeLoss="16.62" rerouteNo="0" devices="tripinfo_6" vType="DEFAULT_VEHTYPE" speedFactor="1.09" vaporized=""/>
    <tripinfo id="4" depart="15.00" departLane="232079775#2_0" departPos="5.10" departSpeed="0.00" departDelay="0.60" arrival="76.00" arrivalLane="119238380#0_0" arrivalPos="135.86" arrivalSpeed="11.83" duration="61.00" routeLength="467.31" waitingTime="9.00" waitingCount="1" stopTime="0.00" timeLoss="23.96" rerouteNo="0" devices="tripinfo_4" vType="DEFAULT_VEHTYPE" speedFactor="0.92" vaporized=""/>
    <tripinfo id="9" depart="33.00" departLane="668307639#0_0" departPos="5.10" departSpeed="0.00" departDelay="0.60" arrival="78.00" arrivalLane="119238380#0_0" arrivalPos="135.86" arrivalSpeed="12.94" duration="45.00" routeLength="495.44" waitingTime="0.00" waitingCount="0" stopTime="0.00" timeLoss="9.28" rerouteNo="0" devices="tripinfo_9" vType="DEFAULT_VEHTYPE" speedFactor="0.94" vaporized=""/>
    <tripinfo id="10" depart="36.00" departLane="668307639#0_0" departPos="5.10" departSpeed="0.00" departDelay="0.00" arrival="79.00" arrivalLane="778823268#0_0" arrivalPos="238.22" arrivalSpeed="13.50" duration="43.00" routeLength="503.37" waitingTime="0.00" waitingCount="0" stopTime="0.00" timeLoss="8.49" rerouteNo="0" devices="tripinfo_10" vType="DEFAULT_VEHTYPE" speedFactor="0.99" vaporized=""/>
    <tripinfo id="13" depart="47.00" departLane="-778823268#1_0" departPos="5.10" departSpeed="0.00" departDelay="0.20" arrival="94.00" arrivalLane="119238380#0_0" arrivalPos="135.86" arrivalSpeed="9.94" duration="47.00" routeLength="461.48" waitingTime="0.00" waitingCount="0" stopTime="0.00" timeLoss="5.40" rerouteNo="0" devices="tripinfo_13" vType="DEFAULT_VEHTYPE" speedFactor="0.81" vaporized=""/>
    <tripinfo id="5" depart="18.00" departLane="-778823268#1_0" departPos="5.10" departSpeed="0.00" departDelay="0.00" arrival="96.00" arrivalLane="668307633#3_1" arrivalPos="112.63" arrivalSpeed="18.39" duration="78.00" routeLength="595.69" waitingTime="23.00" waitingCount="2" stopTime="0.00" timeLoss="42.76" rerouteNo="0" devices="tripinfo_5" vType="DEFAULT_VEHTYPE" speedFactor="1.16" vaporized=""/>
    <tripinfo id="11" depart="40.00" departLane="232079775#2_0" departPos="5.10" departSpeed="0.00" departDelay="0.40" arrival="97.00" arrivalLane="119238380#0_0" arrivalPos="135.86" arrivalSpeed="13.99" duration="57.00" routeLength="467.31" waitingTime="11.00" waitingCount="1" stopTime="0.00" timeLoss="22.64" rerouteNo="0" devices="tripinfo_11" vType="DEFAULT_VEHTYPE" speedFactor="1.01" vaporized=""/>
    <tripinfo id="8" depart="29.00" departLane="-778823268#1_0" departPos="5.10" departSpeed="0.00" departDelay="0.20" arrival="98.00" arrivalLane="668307633#3_2" arrivalPos="112.63" arrivalSpeed="15.33" duration="69.00" routeLength="595.69" waitingTime="12.00" waitingCount="1" stopTime="0.00" timeLoss="25.07" rerouteNo="0" devices="tripinfo_8" vType="DEFAULT_VEHTYPE" speedFactor="0.92" vaporized=""/>
    <tripinfo id="14" depart="51.00" departLane="668307639#0_0" departPos="5.10" departSpeed="0.00" departDelay="0.60" arrival="98.00" arrivalLane="668307633#3_1" arrivalPos="112.63" arrivalSpeed="17.43" duration="47.00" routeLength="623.09" waitingTime="0.00" waitingCount="0" stopTime="0.00" timeLoss="11.15" rerouteNo="0" devices="tripinfo_14" vType="DEFAULT_VEHTYPE" speedFactor="1.12" vaporized=""/>
    <tripinfo id="7" depart="26.00" departLane="448266581#0_0" departPos="5.10" departSpeed="0.00" departDelay="0.80" arrival="100.00" arrivalLane="668307633#3_0" arrivalPos="112.63" arrivalSpeed="13.60" duration="74.00" routeLength="489.91" waitingTime="28.00" waitingCount="1" stopTime="0.00" timeLoss="38.37" rerouteNo="0" devices="tripinfo_7" vType="DEFAULT_VEHTYPE" speedFactor="0.84" vaporized=""/>
    <tripinfo id="15" depart="54.00" departLane="668307639#0_0" departPos="5.10" departSpeed="0.00" departDelay="0.00" arrival="100.00" arrivalLane="778823268#0_0" arrivalPos="238.22" arrivalSpeed="14.09" duration="46.00" routeLength="503.37" waitingTime="2.00" waitingCount="1" stopTime="0.00" timeLoss="13.27" rerouteNo="0" devices="tripinfo_15" vType="DEFAULT_VEHTYPE" speedFactor="1.06" vaporized=""/>
    <tripinfo id="17" depart="62.00" departLane="232079775#2_0" departPos="5.10" departSpeed="0.00" departDelay="0.80" arrival="102.00" arrivalLane="668307633#3_0" arrivalPos="112.63" arrivalSpeed="15.91" duration="40.00" routeLength="455.41" waitingTime="0.00" waitingCount="0" stopTime="0.00" timeLoss="7.99" rerouteNo="0" devices="tripinfo_17" vType="DEFAULT_VEHTYPE" speedFactor="0.96" vaporized=""/>
    <tripinfo id="18" depart="65.00" departLane="668307639#0_0" departPos="5.10" departSpeed="0.00" departDelay="0.20" arrival="111.00" arrivalLane="668307633#3_1" arrivalPos="112.63" arrivalSpeed="17.79" duration="46.00" routeLength="623.09" waitingTime="0.00" waitingCount="0" stopTime="0.00" timeLoss="9.41" rerouteNo="0" devices="tripinfo_18" vType="DEFAULT_VEHTYPE" speedFactor="1.11" vaporized=""/>
    <tripinfo id="12" depart="44.00" departLane="668307639#0_0" departPos="5.10" departSpeed="0.00" departDelay="0.80" arrival="119.00" arrivalLane="44499684#3_0" arrivalPos="84.04" arrivalSpeed="15.06" duration="75.00" routeLength="485.82" waitingTime="33.00" waitingCount="1" stopTime="0.00" timeLoss="43.63" rerouteNo="0" devices="tripinfo_12" vType="DEFAULT_VEHTYPE" speedFactor="0.95" vaporized=""/>
    <tripinfo id="20" depart="72.00" departLane="448266581#0_0" departPos="5.10" departSpeed="0.00" departDelay="0.00" arrival="120.00" arrivalLane="119238380#0_0" arrivalPos="135.86" arrivalSpeed="13.46" duration="48.00" routeLength="356.22" waitingTime="12.00" waitingCount="1" stopTime="0.00" timeLoss="23.72" rerouteNo="0" devices="tripinfo_20" vType="DEFAULT_VEHTYPE" speedFactor="0.99" vaporized=""/>
    <tripinfo id="25" depart="90.00" departLane="232079775#2_0" departPos="5.10" departSpeed="0.00" departDelay="0.00" arrival="121.00" arrivalLane="119238385#0_0" arrivalPos="144.87" arrivalSpeed="14.19" duration="31.00" routeLength="347.78" waitingTime="0.00" waitingCount="0" stopTime="0.00" timeLoss="6.11" rerouteNo="0" devices="tripinfo_25" vType="DEFAULT_VEHTYPE" speedFactor="1.04" vaporized=""/>
    <tripinfo id="16" depart="58.00" departLane="448266581#0_0" departPos="5.10" departSpeed="0.00" departDelay="0.40" arrival="129.00" arrivalLane="E1_1" arrivalPos="103.00" arrivalSpeed="14.88" duration="71.00" routeLength="446.50" waitingTime="28.00" waitingCount="1" stopTime="0.00" timeLoss="41.69" rerouteNo="0" devices="tripinfo_16" vType="DEFAULT_VEHTYPE" speedFactor="1.10" vaporized=""/>
    <tripinfo id="26" depart="94.00" departLane="232079775#2_0" departPos="5.10" departSpeed="0.00" departDelay="0.40" arrival="135.00" arrivalLane="E1_1" arrivalPos="103.00" arrivalSpeed="14.29" duration="41.00" routeLength="382.90" waitingTime="3.00" waitingCount="1" stopTime="0.00" timeLoss="14.14" rerouteNo="0" devices="tripinfo_26" vType="DEFAULT_VEHTYPE" speedFactor="1.05" vaporized=""/>
    <tripinfo id="29" depart="105.00" departLane="-778823268#1_0" departPos="5.10" departSpeed="0.00" departDelay="0.60" arrival="147.00" arrivalLane="44499684#3_0" arrivalPos="84.04" arrivalSpeed="14.69" duration="42.00" routeLength="453.00" waitingTime="0.00" waitingCount="0" stopTime="0.00" timeLoss="7.90" rerouteNo="0" devices="tripinfo_29" vType="DEFAULT_VEHTYPE" speedFactor="0.91" vaporized=""/>
    <tripinfo id="21" depart="76.00" departLane="-778823268#1_0" departPos="5.10" departSpeed="0.00" departDelay="0.40" arrival="151.00" arrivalLane="119238385#0_0" arrivalPos="144.87" arrivalSpeed="13.51" duration="75.00" routeLength="522.97" waitingTime="24.00" waitingCount="1" stopTime="0.00" timeLoss="35.14" rerouteNo="0" devices="tripinfo_21" vType="DEFAULT_VEHTYPE" speedFactor="0.98" vaporized=""/>
    <tripinfo id="22" depart="80.00" departLane="-778823268#1_0" departPos="5.10" departSpeed="0.00" departDelay="0.80" arrival="153.00" arrivalLane="119238385#0_0" arrivalPos="144.87" arrivalSpeed="13.20" duration="73.00" routeLength="522.97" waitingTime="22.00" waitingCount="1" stopTime="0.00" timeLoss="33.57" rerouteNo="0" devices="tripinfo_22" vType="DEFAULT_VEHTYPE" speedFactor="0.99" vaporized=""/>
    <tripinfo id="23" depart="83.00" departLane="-778823268#1_0" departPos="5.10" departSpeed="0.00" departDelay="0.20" arrival="155.00" arrivalLane="119238385#0_0" arrivalPos="144.87" arrivalSpeed="14.56" duration="72.00" routeLength="522.97" waitingTime="22.00" waitingCount="1" stopTime="0.00" timeLoss="36.42" rerouteNo="0" devices="tripinfo_23" vType="DEFAULT_VEHTYPE" speedFactor="1.11" vaporized=""/>
    <tripinfo id="33" depart="119.00" departLane="-778823268#1_0" departPos="5.10" departSpeed="0.00" departDelay="0.20" arrival="156.00" arrivalLane="119238380#0_0" arrivalPos="135.86" arrivalSpeed="14.44" duration="37.00" routeLength="461.48" waitingTime="0.00" waitingCount="0" stopTime="0.00" timeLoss="4.99" rerouteNo="0" devices="tripinfo_33" vType="DEFAULT_VEHTYPE" speedFactor="1.07" vaporized=""/>
    <tripinfo id="35" depart="126.00" departLane="-778823268#1_0" departPos="5.10" departSpeed="0.00" departDelay="0.00" arrival="158.00" arrivalLane="E1_0" arrivalPos="103.00" arrivalSpeed="14.10" duration="32.00" routeLength="369.88" waitingTime="0.00" waitingCount="0" stopTime="0.00" timeLoss="5.42" rerouteNo="0" devices="tripinfo_35" vType="DEFAULT_VEHTYPE" speedFactor="1.04" vaporized=""/>
    <tripinfo id="34" depart="123.00" departLane="232079775#2_0" departPos="5.10" departSpeed="0.00" departDelay="0.60" arrival="159.00" arrivalLane="119238385#0_0" arrivalPos="144.87" arrivalSpeed="12.36" duration="36.00" routeLength="347.78" waitingTime="1.00" waitingCount="1" stopTime="0.00" timeLoss="10.06" rerouteNo="0" devices="tripinfo_34" vType="DEFAULT_VEHTYPE" speedFactor="0.97" vaporized=""/>
    <tripinfo id="32" depart="116.00" departLane="668307639#0_0" departPos="5.10" departSpeed="0.00" departDelay="0.80" arrival="165.00" arrivalLane="778823268#0_0" arrivalPos="238.22" arrivalSpeed="11.62" duration="49.00" routeLength="503.37" waitingTime="0.00" waitingCount="0" stopTime="0.00" timeLoss="9.00" rerouteNo="0" devices="tripinfo_32" vType="DEFAULT_VEHTYPE" speedFactor="0.85" vaporized=""/>
    <tripinfo id="24" depart="87.00" departLane="448266581#0_0" departPos="5.10" departSpeed="0.00" departDelay="0.60" arrival="169.00" arrivalLane="44499684#3_0" arrivalPos="84.04" arrivalSpeed="15.54" duration="82.00" routeLength="508.78" waitingTime="26.00" waitingCount="1" stopTime="0.00" timeLoss="45.64" rerouteNo="0" devices="tripinfo_24" vType="DEFAULT_VEHTYPE" speedFactor="0.94" vaporized=""/>
    <tripinfo id="27" depart="98.00" departLane="448266581#0_0" departPos="5.10" departSpeed="0.00" departDelay="0.80" arrival="173.00" arrivalLane="668307633#3_0" arrivalPos="112.63" arrivalSpeed="16.13" duration="75.00" routeLength="489.91" waitingTime="33.00" waitingCount="1" stopTime="0.00" timeLoss="44.31" rerouteNo="0" devices="tripinfo_27" vType="DEFAULT_VEHTYPE" speedFactor="0.99" vaporized=""/>
    <tripinfo id="28" depart="101.00" departLane="-778823268#1_0" departPos="5.10" departSpeed="0.00" departDelay="0.20" arrival="173.00" arrivalLane="778823268#0_0" arrivalPos="238.22" arrivalSpeed="13.49" duration="72.00" routeLength="655.26" waitingTime="6.00" waitingCount="2" stopTime="0.00" timeLoss="24.81" rerouteNo="0" devices="tripinfo_28" vType="DEFAULT_VEHTYPE" speedFactor="1.04" vaporized=""/>
    <tripinfo id="19" depart="69.00" departLane="668307639#0_0" departPos="5.10" departSpeed="0.00" departDelay="0.60" arrival="174.00" arrivalLane="668307633#3_1" arrivalPos="112.63" arrivalSpeed="13.85" duration="105.00" routeLength="623.09" waitingTime="37.00" waitingCount="3" stopTime="0.00" timeLoss="58.82" rerouteNo="0" devices="tripinfo_19" vType="DEFAULT_VEHTYPE" speedFactor="0.89" vaporized=""/>
    <tripinfo id="30" depart="108.00" departLane="668307639#0_0" departPos="5.10" departSpeed="0.00" departDelay="0.00" arrival="174.00" arrivalLane="668307633#3_2" arrivalPos="112.63" arrivalSpeed="14.00" duration="66.00" routeLength="623.09" waitingTime="5.00" waitingCount="1" stopTime="0.00" timeLoss="19.01" rerouteNo="0" devices="tripinfo_30" vType="DEFAULT_VEHTYPE" speedFactor="0.86" vaporized=""/>
    <tripinfo id="38" depart="137.00" departLane="668307639#0_0" departPos="5.10" departSpeed="0.00" departDelay="0.20" arrival="175.00" arrivalLane="44499684#3_0" arrivalPos="84.04" arrivalSpeed="14.53" duration="38.00" routeLength="485.82" waitingTime="0.00" waitingCount="0" stopTime="0.00" timeLoss="5.17" rerouteNo="0" devices="tripinfo_38" vType="DEFAULT_VEHTYPE" speedFactor="0.91" vaporized=""/>
    <tripinfo id="40" depart="144.00" departLane="448266581#0_0" departPos="5.10" departSpeed="0.00" departDelay="0.00" arrival="181.00" arrivalLane="119238385#0_0" arrivalPos="144.87" arrivalSpeed="11.93" duration="37.00" routeLength="416.20" waitingTime="0.00" waitingCount="0" stopTime="0.00" timeLoss="5.36" rerouteNo="0" devices="tripinfo_40" vType="DEFAULT_VEHTYPE" speedFactor="0.93" vaporized=""/>
    <tripinfo id="39" depart="141.00" departLane="232079775#2_0" departPos="5.10" departSpeed="0.00" departDelay="0.60" arrival="189.00" arrivalLane="119238385#0_0" arrivalPos="144.87" arrivalSpeed="11.94" duration="48.00" routeLength="347.78" waitingTime="10.00" waitingCount="1" stopTime="0.00" timeLoss="19.94" rerouteNo="0" devices="tripinfo_39" vType="DEFAULT_VEHTYPE" speedFactor="0.91" vaporized=""/>
    <tripinfo id="42" depart="152.00" departLane="232079775#2_0" departPos="5.10" departSpeed="0.00" departDelay="0.80" arrival="191.00" arrivalLane="119238385#0_0" arrivalPos="144.87" arrivalSpeed="12.25" duration="39.00" routeLength="347.78" waitingTime="2.00" waitingCount="1" stopTime="0.00" timeLoss="12.26" rerouteNo="0" devices="tripinfo_42" vType="DEFAULT_VEHTYPE" speedFactor="0.97" vaporized=""/>
    <tripinfo id="36" depart="130.00" departLane="668307639#0_0" departPos="5.10" departSpeed="0.00" departDelay="0.40" arrival="198.00" arrivalLane="119238385#0_0" arrivalPos="144.87" arrivalSpeed="14.68" duration="68.00" routeLength="556.93" waitingTime="17.00" waitingCount="2" stopTime="0.00" timeLoss="33.28" rerouteNo="0" devices="tripinfo_36" vType="DEFAULT_VEHTYPE" speedFactor="1.12" vaporized=""/>
    <tripinfo id="41" depart="148.00" departLane="448266581#0_0" departPos="5.10" departSpeed="0.00" departDelay="0.40" arrival="198.00" arrivalLane="E1_1" arrivalPos="103.00" arrivalSpeed="13.06" duration="50.00" routeLength="448.81" waitingTime="4.00" waitingCount="1" stopTime="0.00" timeLoss="17.53" rerouteNo="0" devices="tripinfo_41" vType="DEFAULT_VEHTYPE" speedFactor="0.98" vaporized=""/>
    <tripinfo id="44" depart="159.00" departLane="-778823268#1_0" departPos="5.10" departSpeed="0.00" departDelay="0.60" arrival="200.00" arrivalLane="119238380#0_0" arrivalPos="135.86" arrivalSpeed="12.66" duration="41.00" routeLength="461.48" waitingTime="0.00" waitingCount="0" stopTime="0.00" timeLoss="4.69" rerouteNo="0" devices="tripinfo_44" vType="DEFAULT_VEHTYPE" speedFactor="0.94" vaporized=""/>
    <tripinfo id="31" depart="112.00" departLane="448266581#0_0" departPos="5.10" departSpeed="0.00" departDelay="0.40" arrival="203.00" arrivalLane="778823268#0_0" arrivalPos="238.22" arrivalSpeed="14.38" duration="91.00" routeLength="546.01" waitingTime="35.00" waitingCount="2" stopTime="0.00" timeLoss="53.66" rerouteNo="0" devices="tripinfo_31" vType="DEFAULT_VEHTYPE" speedFactor="1.06" vaporized=""/>
    <tripinfo id="47" depart="170.00" departLane="-778823268#1_0" departPos="5.10" departSpeed="0.00" departDelay="0.80" arrival="208.00" arrivalLane="44499684#3_0" arrivalPos="84.04" arrivalSpeed="16.60" duration="38.00" routeLength="453.00" waitingTime="0.00" waitingCount="0" stopTime="0.00" timeLoss="8.22" rerouteNo="0" devices="tripinfo_47" vType="DEFAULT_VEHTYPE" speedFactor="1.05" vaporized=""/>
    <tripinfo id="49" depart="177.00" departLane="668307639#0_0" departPos="5.10" departSpeed="0.00" departDelay="0.60" arrival="224.00" arrivalLane="E1_1" arrivalPos="103.00" arrivalSpeed="13.49" duration="47.00" routeLength="411.03" waitingTime="4.00" waitingCount="1" stopTime="0.00" timeLoss="18.40" rerouteNo="0" devices="tripinfo_49" vType="DEFAULT_VEHTYPE" speedFactor="0.98" vaporized=""/>
    <tripinfo id="53" depart="191.00" departLane="-778823268#1_0" departPos="5.10" departSpeed="0.00" departDelay="0.20" arrival="227.00" arrivalLane="44499684#3_0" arrivalPos="84.04" arrivalSpeed="20.54" duration="36.00" routeLength="453.00" waitingTime="0.00" waitingCount="0" stopTime="0.00" timeLoss="10.31" rerouteNo="0" devices="tripinfo_53" vType="DEFAULT_VEHTYPE" speedFactor="1.24" vaporized=""/>
    <tripinfo id="52" depart="188.00" departLane="232079775#2_0" departPos="5.10" departSpeed="0.00" departDelay="0.80" arrival="233.00" arrivalLane="668307633#3_0" arrivalPos="112.63" arrivalSpeed="15.05" duration="45.00" routeLength="455.41" waitingTime="2.00" waitingCount="1" stopTime="0.00" timeLoss="12.62" rerouteNo="0" devices="tripinfo_52" vType="DEFAULT_VEHTYPE" speedFactor="0.97" vaporized=""/>
    <tripinfo id="54" depart="195.00" departLane="232079775#2_0" departPos="5.10" departSpeed="0.00" departDelay="0.60" arrival="240.00" arrivalLane="E1_1" arrivalPos="103.00" arrivalSpeed="14.42" duration="45.00" routeLength="382.90" waitingTime="5.00" waitingCount="1" stopTime="0.00" timeLoss="18.62" rerouteNo="0" devices="tripinfo_54" vType="DEFAULT_VEHTYPE" speedFactor="1.07" vaporized=""/>
    <tripinfo id="55" depart="198.00" departLane="668307639#0_0" departPos="5.10" departSpeed="0.00" departDelay="0.00" arrival="242.00" arrivalLane="119238385#0_0" arrivalPos="144.87" arrivalSpeed="15.21" duration="44.00" routeLength="556.93" waitingTime="0.00" waitingCount="0" stopTime="0.00" timeLoss="9.02" rerouteNo="0" devices="tripinfo_55" vType="DEFAULT_VEHTYPE" speedFactor="1.12" vaporized=""/>
    <tripinfo id="46" depart="166.00" departLane="668307639#0_0" departPos="5.10" departSpeed="0.00" departDelay="0.40" arrival="243.00" arrivalLane="44499684#3_1" arrivalPos="84.04" arrivalSpeed="17.42" duration="77.00" routeLength="485.82" waitingTime="34.00" waitingCount="2" stopTime="0.00" timeLoss="48.38" rerouteNo="0" devices="tripinfo_46" vType="DEFAULT_VEHTYPE" speedFactor="1.07" vaporized=""/>
    <tripinfo id="37" depart="134.00" departLane="448266581#0_0" departPos="5.10" departSpeed="0.00" departDelay="0.80" arrival="244.00" arrivalLane="44499684#3_0" arrivalPos="84.04" arrivalSpeed="13.86" duration="110.00" routeLength="513.77" waitingTime="46.00" waitingCount="3" stopTime="0.00" timeLoss="71.76" rerouteNo="0" devices="tripinfo_37" vType="DEFAULT_VEHTYPE" speedFactor="0.90" vaporized=""/>
    <tripinfo id="57" depart="206.00" departLane="668307639#0_0" departPos="5.10" departSpeed="0.00" departDelay="0.80" arrival="245.00" arrivalLane="E1_1" arrivalPos="103.00" arrivalSpeed="15.88" duration="39.00" routeLength="411.03" waitingTime="1.00" waitingCount="1" stopTime="0.00" timeLoss="15.17" rerouteNo="0" devices="tripinfo_57" vType="DEFAULT_VEHTYPE" speedFactor="1.19" vaporized=""/>
    <tripinfo id="43" depart="155.00" departLane="668307639#0_0" departPos="5.10" departSpeed="0.00" departDelay="0.20" arrival="246.00" arrivalLane="668307633#3_1" arrivalPos="112.63" arrivalSpeed="18.38" duration="91.00" routeLength="623.09" waitingTime="26.00" waitingCount="2" stopTime="0.00" timeLoss="54.08" rerouteNo="0" devices="tripinfo_43" vType="DEFAULT_VEHTYPE" speedFactor="1.11" vaporized=""/>
    <tripinfo id="45" depart="162.00" departLane="-778823268#1_0" departPos="5.10" departSpeed="0.00" departDelay="0.00" arrival="246.00" arrivalLane="668307633#3_0" arrivalPos="112.63" arrivalSpeed="17.28" duration="84.00" routeLength="595.69" waitingTime="36.00" waitingCount="1" stopTime="0.00" timeLoss="47.32" rerouteNo="0" devices="tripinfo_45" vType="DEFAULT_VEHTYPE" speedFactor="1.10" vaporized=""/>
    <tripinfo id="48" depart="173.00" departLane="668307639#0_0" departPos="5.10" departSpeed="0.00" departDelay="0.20" arrival="246.00" arrivalLane="668307633#3_2" arrivalPos="112.63" arrivalSpeed="15.19" duration="73.00" routeLength="625.14" waitingTime="10.00" waitingCount="2" stopTime="0.00" timeLoss="31.33" rerouteNo="0" devices="tripinfo_48" vType="DEFAULT_VEHTYPE" speedFactor="0.98" vaporized=""/>
    <tripinfo id="50" depart="180.00" departLane="-778823268#1_0" departPos="5.10" departSpeed="0.00" departDelay="0.00" arrival="246.00" arrivalLane="778823268#0_0" arrivalPos="238.22" arrivalSpeed="16.20" duration="66.00" routeLength="655.26" waitingTime="11.00" waitingCount="1" stopTime="0.00" timeLoss="26.15" rerouteNo="0" devices="tripinfo_50" vType="DEFAULT_VEHTYPE" speedFactor="1.24" vaporized=""/>
    <tripinfo id="59" depart="213.00" departLane="448266581#0_0" departPos="5.10" departSpeed="0.00" departDelay="0.60" arrival="247.00" arrivalLane="119238380#0_0" arrivalPos="135.86" arrivalSpeed="13.40" duration="34.00" routeLength="354.71" waitingTime="0.00" waitingCount="0" stopTime="0.00" timeLoss="10.41" rerouteNo="0" devices="tripinfo_59" vType="DEFAULT_VEHTYPE" speedFactor="1.06" vaporized=""/>
    <tripinfo id="51" depart="184.00" departLane="448266581#0_0" departPos="5.10" departSpeed="0.00" departDelay="0.40" arrival="250.00" arrivalLane="668307633#3_1" arrivalPos="112.63" arrivalSpeed="18.35" duration="66.00" routeLength="489.91" waitingTime="27.00" waitingCount="1" stopTime="0.00" timeLoss="39.50" rerouteNo="0" devices="tripinfo_51" vType="DEFAULT_VEHTYPE" speedFactor="1.12" vaporized=""/>
    <tripinfo id="58" depart="209.00" departLane="232079775#2_0" departPos="5.10" departSpeed="0.00" departDelay="0.20" arrival="252.00" arrivalLane="668307633#3_0" arrivalPos="112.63" arrivalSpeed="16.35" duration="43.00" routeLength="455.41" waitingTime="2.00" waitingCount="1" stopTime="0.00" timeLoss="12.75" rerouteNo="0" devices="tripinfo_58" vType="DEFAULT_VEHTYPE" speedFactor="1.02" vaporized=""/>
    <tripinfo id="56" depart="202.00" departLane="448266581#0_0" departPos="5.10" departSpeed="0.00" departDelay="0.40" arrival="255.00" arrivalLane="119238385#0_0" arrivalPos="144.87" arrivalSpeed="13.89" duration="53.00" routeLength="417.71" waitingTime="10.00" waitingCount="2" stopTime="0.00" timeLoss="25.95" rerouteNo="0" devices="tripinfo_56" vType="DEFAULT_VEHTYPE" speedFactor="1.08" vaporized=""/>
    <tripinfo id="63" depart="227.00" departLane="-778823268#1_0" departPos="5.10" departSpeed="0.00" departDelay="0.20" arrival="262.00" arrivalLane="E1_0" arrivalPos="103.00" arrivalSpeed="12.48" duration="35.00" routeLength="369.88" waitingTime="0.00" waitingCount="0" stopTime="0.00" timeLoss="5.60" rerouteNo="0" devices="tripinfo_63" vType="DEFAULT_VEHTYPE" speedFactor="0.92" vaporized=""/>
    <tripinfo id="62" depart="224.00" departLane="-778823268#1_0" departPos="5.10" departSpeed="0.00" departDelay="0.80" arrival="274.00" arrivalLane="119238385#0_0" arrivalPos="144.87" arrivalSpeed="14.41" duration="50.00" routeLength="522.97" waitingTime="1.00" waitingCount="1" stopTime="0.00" timeLoss="13.17" rerouteNo="0" devices="tripinfo_62" vType="DEFAULT_VEHTYPE" speedFactor="1.06" vaporized=""/>
    <tripinfo id="64" depart="231.00" departLane="668307639#0_0" departPos="5.10" departSpeed="0.00" departDelay="0.60" arrival="278.00" arrivalLane="778823268#0_0" arrivalPos="238.22" arrivalSpeed="12.34" duration="47.00" routeLength="503.37" waitingTime="0.00" waitingCount="0" stopTime="0.00" timeLoss="9.43" rerouteNo="0" devices="tripinfo_64" vType="DEFAULT_VEHTYPE" speedFactor="0.93" vaporized=""/>
    <tripinfo id="67" depart="242.00" departLane="-778823268#1_0" departPos="5.10" departSpeed="0.00" departDelay="0.80" arrival="280.00" arrivalLane="44499684#3_0" arrivalPos="84.04" arrivalSpeed="16.88" duration="38.00" routeLength="453.00" waitingTime="0.00" waitingCount="0" stopTime="0.00" timeLoss="8.51" rerouteNo="0" devices="tripinfo_67" vType="DEFAULT_VEHTYPE" speedFactor="1.05" vaporized=""/>
    <tripinfo id="66" depart="238.00" departLane="668307639#0_0" departPos="5.10" departSpeed="0.00" departDelay="0.40" arrival="282.00" arrivalLane="E1_1" arrivalPos="103.00" arrivalSpeed="11.16" duration="44.00" routeLength="411.03" waitingTime="2.00" waitingCount="1" stopTime="0.00" timeLoss="10.75" rerouteNo="0" devices="tripinfo_66" vType="DEFAULT_VEHTYPE" speedFactor="0.85" vaporized=""/>
    <tripinfo id="69" depart="249.00" departLane="668307639#0_0" departPos="5.10" departSpeed="0.00" departDelay="0.60" arrival="289.00" arrivalLane="119238380#0_0" arrivalPos="135.86" arrivalSpeed="14.31" duration="40.00" routeLength="495.44" waitingTime="0.00" waitingCount="0" stopTime="0.00" timeLoss="7.72" rerouteNo="0" devices="tripinfo_69" vType="DEFAULT_VEHTYPE" speedFactor="1.04" vaporized=""/>
    <tripinfo id="70" depart="252.00" departLane="232079775#2_0" departPos="5.10" departSpeed="0.00" departDelay="0.00" arrival="296.00" arrivalLane="668307633#3_0" arrivalPos="112.63" arrivalSpeed="13.33" duration="44.00" routeLength="455.41" waitingTime="0.00" waitingCount="0" stopTime="0.00" timeLoss="8.42" rerouteNo="0" devices="tripinfo_70" vType="DEFAULT_VEHTYPE" speedFactor="0.87" vaporized=""/>
    <tripinfo id="65" depart="234.00" departLane="232079775#2_0" departPos="5.10" departSpeed="0.00" departDelay="0.00" arrival="297.00" arrivalLane="119238380#0_0" arrivalPos="135.86" arrivalSpeed="14.30" duration="63.00" routeLength="467.31" waitingTime="19.00" waitingCount="1" stopTime="0.00" timeLoss="30.66" rerouteNo="0" devices="tripinfo_65" vType="DEFAULT_VEHTYPE" speedFactor="1.06" vaporized=""/>
    <tripinfo id="72" depart="260.00" departLane="232079775#2_0" departPos="5.10" departSpeed="0.00" departDelay="0.80" arrival="297.00" arrivalLane="119238385#0_0" arrivalPos="144.87" arrivalSpeed="12.38" duration="37.00" routeLength="347.78" waitingTime="0.00" waitingCount="0" stopTime="0.00" timeLoss="9.00" rerouteNo="0" devices="tripinfo_72" vType="DEFAULT_VEHTYPE" speedFactor="0.90" vaporized=""/>