<?xml version="1.0" encoding="UTF-8"?>

<!-- generated on 2024-09-02 16:30:38 by Eclipse SUMO sumo Version 1.20.0
<configuration xmlns:xsi="http://www.w3.org/2001/XMLSchema-instance" xsi:noNamespaceSchemaLocation="http://sumo.dlr.de/xsd/sumoConfiguration.xsd">

    <input>
        <net-file value="c:\self\School\Master\Disertation\code\RESCO\resco_benchmark\environments/unirii/osm.net.xml.gz"/>
        <route-files value="c:\self\School\Master\Disertation\code\RESCO\resco_benchmark\environments/unirii/osm.passenger.trips.xml"/>
        <additional-files value="c:\self\School\Master\Disertation\code\RESCO\resco_benchmark\environments/unirii/osm.poly.xml.gz"/>
    </input>

    <output>
        <tripinfo-output value="C:\self\School\Master\Disertation\code\RESCO\results\MPLight-tr0-unirii-0-mplight-pressure\tripinfo_48.xml"/>
        <tripinfo-output.write-unfinished value="true"/>
    </output>

    <processing>
        <ignore-route-errors value="true"/>
        <time-to-teleport value="-1"/>
    </processing>

    <routing>
        <device.rerouting.adaptation-steps value="18"/>
        <device.rerouting.adaptation-interval value="10"/>
    </routing>

    <report>
        <verbose value="true"/>
        <no-warnings value="True"/>
        <duration-log.statistics value="true"/>
        <no-step-log value="True"/>
    </report>

    <traci_server>
        <remote-port value="64813"/>
    </traci_server>

    <random_number>
        <random value="true"/>
    </random_number>

    <gui_only>
        <gui-settings-file value="c:\self\School\Master\Disertation\code\RESCO\resco_benchmark\environments/unirii/osm.view.xml"/>
    </gui_only>

</configuration>
-->

<tripinfos xmlns:xsi="http://www.w3.org/2001/XMLSchema-instance" xsi:noNamespaceSchemaLocation="http://sumo.dlr.de/xsd/tripinfo_file.xsd">
    <tripinfo id="3" depart="7.00" departLane="E8_0" departPos="5.10" departSpeed="0.00" departDelay="0.65" arrival="69.00" arrivalLane="-256961141#1_0" arrivalPos="204.72" arrivalSpeed="16.08" duration="62.00" routeLength="832.89" waitingTime="0.00" waitingCount="0" stopTime="0.00" timeLoss="9.51" rerouteNo="0" devices="tripinfo_3" vType="DEFAULT_VEHTYPE" speedFactor="1.17" vaporized=""/>
    <tripinfo id="6" depart="13.00" departLane="-218680176#1_0" departPos="5.10" departSpeed="0.00" departDelay="0.29" arrival="103.00" arrivalLane="153964138#0_2" arrivalPos="337.99" arrivalSpeed="17.82" duration="90.00" routeLength="462.27" waitingTime="51.00" waitingCount="1" stopTime="0.00" timeLoss="61.70" rerouteNo="0" devices="tripinfo_6" vType="DEFAULT_VEHTYPE" speedFactor="1.08" vaporized=""/>
    <tripinfo id="11" depart="24.00" departLane="-661251539_0" departPos="5.10" departSpeed="0.00" departDelay="0.71" arrival="128.00" arrivalLane="153964138#0_0" arrivalPos="337.99" arrivalSpeed="15.77" duration="104.00" routeLength="1239.04" waitingTime="5.00" waitingCount="1" stopTime="0.00" timeLoss="19.20" rerouteNo="0" devices="tripinfo_11" vType="DEFAULT_VEHTYPE" speedFactor="1.01" vaporized=""/>
    <tripinfo id="10" depart="23.00" departLane="978867529_0" departPos="5.10" departSpeed="0.00" departDelay="1.82" arrival="138.00" arrivalLane="231177697#0_1" arrivalPos="74.44" arrivalSpeed="13.57" duration="115.00" routeLength="437.06" waitingTime="77.00" waitingCount="1" stopTime="0.00" timeLoss="86.78" rerouteNo="0" devices="tripinfo_10" vType="DEFAULT_VEHTYPE" speedFactor="1.01" vaporized=""/>
    <tripinfo id="15" depart="33.00" departLane="978867529_0" departPos="5.10" departSpeed="0.00" departDelay="1.24" arrival="140.00" arrivalLane="231177697#0_1" arrivalPos="74.44" arrivalSpeed="13.53" duration="107.00" routeLength="437.06" waitingTime="68.00" waitingCount="1" stopTime="0.00" timeLoss="79.00" rerouteNo="0" devices="tripinfo_15" vType="DEFAULT_VEHTYPE" speedFactor="1.02" vaporized=""/>
    <tripinfo id="17" depart="36.00" departLane="-661251539_0" departPos="5.10" departSpeed="0.00" departDelay="0.00" arrival="140.00" arrivalLane="218680176#0_1" arrivalPos="98.94" arrivalSpeed="14.20" duration="104.00" routeLength="1001.21" waitingTime="20.00" waitingCount="1" stopTime="0.00" timeLoss="35.97" rerouteNo="0" devices="tripinfo_17" vType="DEFAULT_VEHTYPE" speedFactor="1.08" vaporized=""/>
    <tripinfo id="35" depart="75.00" departLane="-226276377#1_0" departPos="5.10" departSpeed="0.00" departDelay="0.88" arrival="140.00" arrivalLane="450554042#0_0" arrivalPos="622.66" arrivalSpeed="18.79" duration="65.00" routeLength="763.53" waitingTime="11.00" waitingCount="1" stopTime="0.00" timeLoss="24.20" rerouteNo="0" devices="tripinfo_35" vType="DEFAULT_VEHTYPE" speedFactor="1.18" vaporized=""/>
    <tripinfo id="32" depart="68.00" departLane="978867529_0" departPos="5.10" departSpeed="0.00" departDelay="0.24" arrival="142.00" arrivalLane="231177697#0_1" arrivalPos="74.44" arrivalSpeed="13.84" duration="74.00" routeLength="437.06" waitingTime="35.00" waitingCount="1" stopTime="0.00" timeLoss="45.83" rerouteNo="0" devices="tripinfo_32" vType="DEFAULT_VEHTYPE" speedFactor="1.01" vaporized=""/>
    <tripinfo id="40" depart="85.00" departLane="65746828#0_0" departPos="5.10" departSpeed="0.00" departDelay="0.29" arrival="142.00" arrivalLane="210831345#1_0" arrivalPos="264.29" arrivalSpeed="8.96" duration="57.00" routeLength="446.75" waitingTime="0.00" waitingCount="0" stopTime="0.00" timeLoss="12.38" rerouteNo="0" devices="tripinfo_40" vType="DEFAULT_VEHTYPE" speedFactor="0.73" vaporized=""/>
    <tripinfo id="14" depart="30.00" departLane="978867529_0" departPos="5.10" departSpeed="0.00" departDelay="0.35" arrival="143.00" arrivalLane="226276377#0_0" arrivalPos="135.52" arrivalSpeed="12.30" duration="113.00" routeLength="1369.55" waitingTime="1.00" waitingCount="1" stopTime="0.00" timeLoss="14.85" rerouteNo="0" devices="tripinfo_14" vType="DEFAULT_VEHTYPE" speedFactor="0.92" vaporized=""/>
    <tripinfo id="19" depart="42.00" departLane="978867529_0" departPos="5.10" departSpeed="0.00" departDelay="1.76" arrival="144.00" arrivalLane="226276377#0_0" arrivalPos="135.52" arrivalSpeed="13.93" duration="102.00" routeLength="1369.55" waitingTime="0.00" waitingCount="0" stopTime="0.00" timeLoss="14.85" rerouteNo="0" devices="tripinfo_19" vType="DEFAULT_VEHTYPE" speedFactor="1.03" vaporized=""/>
    <tripinfo id="18" depart="39.00" departLane="978867529_0" departPos="5.10" departSpeed="0.00" departDelay="0.88" arrival="147.00" arrivalLane="226276377#0_0" arrivalPos="135.52" arrivalSpeed="13.02" duration="108.00" routeLength="1369.55" waitingTime="0.00" waitingCount="0" stopTime="0.00" timeLoss="15.48" rerouteNo="0" devices="tripinfo_18" vType="DEFAULT_VEHTYPE" speedFactor="0.97" vaporized=""/>
    <tripinfo id="2" depart="5.00" departLane="666135205#0_0" departPos="5.10" departSpeed="0.00" departDelay="0.76" arrival="161.00" arrivalLane="231177697#0_0" arrivalPos="74.44" arrivalSpeed="14.36" duration="156.00" routeLength="649.17" waitingTime="95.00" waitingCount="2" stopTime="0.00" timeLoss="110.44" rerouteNo="0" devices="tripinfo_2" vType="DEFAULT_VEHTYPE" speedFactor="1.05" vaporized=""/>
    <tripinfo id="27" depart="58.00" departLane="65746828#0_0" departPos="5.10" departSpeed="0.00" departDelay="0.82" arrival="163.00" arrivalLane="226276377#0_0" arrivalPos="135.52" arrivalSpeed="12.37" duration="105.00" routeLength="841.69" waitingTime="29.00" waitingCount="1" stopTime="0.00" timeLoss="45.72" rerouteNo="0" devices="tripinfo_27" vType="DEFAULT_VEHTYPE" speedFactor="0.94" vaporized=""/>
    <tripinfo id="61" depart="130.00" departLane="978867529_0" departPos="5.10" departSpeed="0.00" departDelay="0.82" arrival="166.00" arrivalLane="218680176#0_0" arrivalPos="98.94" arrivalSpeed="14.15" duration="36.00" routeLength="442.15" waitingTime="0.00" waitingCount="0" stopTime="0.00" timeLoss="8.68" rerouteNo="0" devices="tripinfo_61" vType="DEFAULT_VEHTYPE" speedFactor="1.08" vaporized=""/>
    <tripinfo id="46" depart="98.00" departLane="978867529_0" departPos="5.10" departSpeed="0.00" departDelay="0.59" arrival="168.00" arrivalLane="210831347#0_0" arrivalPos="149.88" arrivalSpeed="15.64" duration="70.00" routeLength="812.56" waitingTime="10.00" waitingCount="1" stopTime="0.00" timeLoss="22.90" rerouteNo="0" devices="tripinfo_46" vType="DEFAULT_VEHTYPE" speedFactor="1.18" vaporized=""/>
    <tripinfo id="31" depart="66.00" departLane="65746828#0_0" departPos="5.10" departSpeed="0.00" departDelay="0.35" arrival="169.00" arrivalLane="231177697#0_0" arrivalPos="74.44" arrivalSpeed="12.63" duration="103.00" routeLength="558.79" waitingTime="45.00" waitingCount="1" stopTime="0.00" timeLoss="59.35" rerouteNo="0" devices="tripinfo_31" vType="DEFAULT_VEHTYPE" speedFactor="0.96" vaporized=""/>
    <tripinfo id="41" depart="88.00" departLane="65746828#0_0" departPos="5.10" departSpeed="0.00" departDelay="1.18" arrival="190.00" arrivalLane="450554042#0_0" arrivalPos="622.66" arrivalSpeed="16.38" duration="102.00" routeLength="1340.72" waitingTime="0.00" waitingCount="0" stopTime="0.00" timeLoss="19.03" rerouteNo="0" devices="tripinfo_41" vType="DEFAULT_VEHTYPE" speedFactor="1.01" vaporized=""/>
    <tripinfo id="59" depart="125.00" departLane="65746828#0_0" departPos="5.10" departSpeed="0.00" departDelay="0.06" arrival="193.00" arrivalLane="153964138#0_0" arrivalPos="337.99" arrivalSpeed="14.49" duration="68.00" routeLength="834.49" waitingTime="0.00" waitingCount="0" stopTime="0.00" timeLoss="5.81" rerouteNo="0" devices="tripinfo_59" vType="DEFAULT_VEHTYPE" speedFactor="0.91" vaporized=""/>
    <tripinfo id="12" depart="26.00" departLane="E8_0" departPos="5.10" departSpeed="0.00" departDelay="0.59" arrival="195.00" arrivalLane="210831347#0_1" arrivalPos="149.88" arrivalSpeed="14.14" duration="169.00" routeLength="1367.17" waitingTime="60.00" waitingCount="1" stopTime="0.00" timeLoss="76.26" rerouteNo="0" devices="tripinfo_12" vType="DEFAULT_VEHTYPE" speedFactor="1.03" vaporized=""/>
    <tripinfo id="49" depart="105.00" departLane="E8_0" departPos="5.10" departSpeed="0.00" departDelay="1.24" arrival="200.00" arrivalLane="39907424_0" arrivalPos="316.44" arrivalSpeed="15.68" duration="95.00" routeLength="1303.68" waitingTime="0.00" waitingCount="0" stopTime="0.00" timeLoss="15.03" rerouteNo="0" devices="tripinfo_49" vType="DEFAULT_VEHTYPE" speedFactor="1.15" vaporized=""/>
    <tripinfo id="50" depart="106.00" departLane="-218680176#1_0" departPos="5.10" departSpeed="0.00" departDelay="0.12" arrival="200.00" arrivalLane="231177697#0_0" arrivalPos="74.44" arrivalSpeed="12.25" duration="94.00" routeLength="205.97" waitingTime="60.00" waitingCount="2" stopTime="0.00" timeLoss="77.76" rerouteNo="0" devices="tripinfo_50" vType="DEFAULT_VEHTYPE" speedFactor="0.92" vaporized=""/>
    <tripinfo id="79" depart="168.00" departLane="-231177697#2_0" departPos="5.10" departSpeed="0.00" departDelay="0.71" arrival="202.00" arrivalLane="153964138#0_0" arrivalPos="337.99" arrivalSpeed="16.63" duration="34.00" routeLength="417.38" waitingTime="0.00" waitingCount="0" stopTime="0.00" timeLoss="7.10" rerouteNo="0" devices="tripinfo_79" vType="DEFAULT_VEHTYPE" speedFactor="1.02" vaporized=""/>
    <tripinfo id="1" depart="3.00" departLane="-231177697#2_0" departPos="5.10" departSpeed="0.00" departDelay="0.88" arrival="205.00" arrivalLane="210831345#1_1" arrivalPos="264.29" arrivalSpeed="11.79" duration="202.00" routeLength="696.92" waitingTime="131.00" waitingCount="2" stopTime="0.00" timeLoss="146.95" rerouteNo="0" devices="tripinfo_1" vType="DEFAULT_VEHTYPE" speedFactor="0.93" vaporized=""/>
    <tripinfo id="21" depart="45.00" departLane="-231177697#2_0" departPos="5.10" departSpeed="0.00" departDelay="0.53" arrival="205.00" arrivalLane="210831345#1_0" arrivalPos="264.29" arrivalSpeed="15.42" duration="160.00" routeLength="696.92" waitingTime="90.00" waitingCount="2" stopTime="0.00" timeLoss="116.05" rerouteNo="0" devices="tripinfo_21" vType="DEFAULT_VEHTYPE" speedFactor="1.18" vaporized=""/>
    <tripinfo id="34" depart="72.00" departLane="-231177697#2_0" departPos="5.10" departSpeed="0.00" departDelay="0.00" arrival="207.00" arrivalLane="210831345#1_1" arrivalPos="264.29" arrivalSpeed="13.68" duration="135.00" routeLength="696.92" waitingTime="64.00" waitingCount="1" stopTime="0.00" timeLoss="86.53" rerouteNo="0" devices="tripinfo_34" vType="DEFAULT_VEHTYPE" speedFactor="1.06" vaporized=""/>
    <tripinfo id="68" depart="144.00" departLane="-218680176#1_0" departPos="5.10" departSpeed="0.00" departDelay="0.00" arrival="207.00" arrivalLane="231177697#0_0" arrivalPos="74.44" arrivalSpeed="14.87" duration="63.00" routeLength="205.97" waitingTime="27.00" waitingCount="2" stopTime="0.00" timeLoss="49.09" rerouteNo="0" devices="tripinfo_68" vType="DEFAULT_VEHTYPE" speedFactor="1.09" vaporized=""/>
    <tripinfo id="39" depart="83.00" departLane="-231177697#2_0" departPos="5.10" departSpeed="0.00" departDelay="0.41" arrival="210.00" arrivalLane="210831345#1_1" arrivalPos="264.29" arrivalSpeed="13.03" duration="127.00" routeLength="696.92" waitingTime="62.00" waitingCount="1" stopTime="0.00" timeLoss="73.08" rerouteNo="0" devices="tripinfo_39" vType="DEFAULT_VEHTYPE" speedFactor="0.96" vaporized=""/>
    <tripinfo id="36" depart="77.00" departLane="978867529_0" departPos="5.10" departSpeed="0.00" departDelay="0.76" arrival="212.00" arrivalLane="210831345#1_1" arrivalPos="264.29" arrivalSpeed="12.42" duration="135.00" routeLength="951.92" waitingTime="52.00" waitingCount="1" stopTime="0.00" timeLoss="65.62" rerouteNo="0" devices="tripinfo_36" vType="DEFAULT_VEHTYPE" speedFactor="0.94" vaporized=""/>
    <tripinfo id="57" depart="121.00" departLane="E8_0" departPos="5.10" departSpeed="0.00" departDelay="0.29" arrival="213.00" arrivalLane="39907424_0" arrivalPos="316.44" arrivalSpeed="15.29" duration="92.00" routeLength="1303.68" waitingTime="0.00" waitingCount="0" stopTime="0.00" timeLoss="12.73" rerouteNo="0" devices="tripinfo_57" vType="DEFAULT_VEHTYPE" speedFactor="1.15" vaporized=""/>
    <tripinfo id="55" depart="117.00" departLane="978867529_0" departPos="5.10" departSpeed="0.00" departDelay="0.53" arrival="218.00" arrivalLane="210831345#1_0" arrivalPos="264.29" arrivalSpeed="11.23" duration="101.00" routeLength="951.92" waitingTime="3.00" waitingCount="1" stopTime="0.00" timeLoss="21.13" rerouteNo="0" devices="tripinfo_55" vType="DEFAULT_VEHTYPE" speedFactor="0.82" vaporized=""/>
    <tripinfo id="22" depart="47.00" departLane="-218680176#1_0" departPos="5.10" departSpeed="0.00" departDelay="0.41" arrival="225.00" arrivalLane="210831345#1_1" arrivalPos="264.29" arrivalSpeed="15.36" duration="178.00" routeLength="699.94" waitingTime="113.00" waitingCount="2" stopTime="0.00" timeLoss="132.59" rerouteNo="0" devices="tripinfo_22" vType="DEFAULT_VEHTYPE" speedFactor="1.15" vaporized=""/>
    <tripinfo id="25" depart="53.00" departLane="-661251539_0" departPos="5.10" departSpeed="0.00" departDelay="0.06" arrival="230.00" arrivalLane="153964138#0_0" arrivalPos="337.99" arrivalSpeed="15.25" duration="177.00" routeLength="1239.04" waitingTime="62.00" waitingCount="2" stopTime="0.00" timeLoss="83.54" rerouteNo="0" devices="tripinfo_25" vType="DEFAULT_VEHTYPE" speedFactor="0.92" vaporized=""/>
    <tripinfo id="26" depart="56.00" departLane="-231177697#2_0" departPos="5.10" departSpeed="0.00" departDelay="0.94" arrival="230.00" arrivalLane="450554042#0_0" arrivalPos="622.66" arrivalSpeed="17.44" duration="174.00" routeLength="1613.58" waitingTime="55.00" waitingCount="2" stopTime="0.00" timeLoss="79.64" rerouteNo="0" devices="tripinfo_26" vType="DEFAULT_VEHTYPE" speedFactor="1.09" vaporized=""/>
    <tripinfo id="42" depart="89.00" departLane="-661251539_0" departPos="5.10" departSpeed="0.00" departDelay="0.06" arrival="230.00" arrivalLane="153964138#0_1" arrivalPos="337.99" arrivalSpeed="14.65" duration="141.00" routeLength="1239.04" waitingTime="31.00" waitingCount="2" stopTime="0.00" timeLoss="50.27" rerouteNo="0" devices="tripinfo_42" vType="DEFAULT_VEHTYPE" speedFactor="0.95" vaporized=""/>
    <tripinfo id="23" depart="50.00" departLane="-218680176#1_0" departPos="5.10" departSpeed="0.00" departDelay="1.29" arrival="236.00" arrivalLane="210831345#1_0" arrivalPos="264.29" arrivalSpeed="10.94" duration="186.00" routeLength="699.94" waitingTime="111.00" waitingCount="2" stopTime="0.00" timeLoss="126.95" rerouteNo="0" devices="tripinfo_23" vType="DEFAULT_VEHTYPE" speedFactor="0.87" vaporized=""/>
    <tripinfo id="47" depart="100.00" departLane="-218680176#1_0" departPos="5.10" departSpeed="0.00" departDelay="0.47" arrival="243.00" arrivalLane="210831347#0_0" arrivalPos="149.88" arrivalSpeed="16.18" duration="143.00" routeLength="560.58" waitingTime="81.00" waitingCount="3" stopTime="0.00" timeLoss="107.36" rerouteNo="0" devices="tripinfo_47" vType="DEFAULT_VEHTYPE" speedFactor="1.18" vaporized=""/>
    <tripinfo id="7" depart="15.00" departLane="65746828#0_0" departPos="5.10" departSpeed="0.00" departDelay="0.18" arrival="244.00" arrivalLane="218680176#0_1" arrivalPos="98.94" arrivalSpeed="8.47" duration="229.00" routeLength="602.71" waitingTime="150.00" waitingCount="2" stopTime="0.00" timeLoss="163.84" rerouteNo="0" devices="tripinfo_7" vType="DEFAULT_VEHTYPE" speedFactor="0.68" vaporized=""/>
    <tripinfo id="30" depart="64.00" departLane="E8_0" departPos="5.10" departSpeed="0.00" departDelay="0.47" arrival="245.00" arrivalLane="226276377#0_1" arrivalPos="135.52" arrivalSpeed="11.45" duration="181.00" routeLength="784.51" waitingTime="102.00" waitingCount="1" stopTime="0.00" timeLoss="112.29" rerouteNo="0" devices="tripinfo_30" vType="DEFAULT_VEHTYPE" speedFactor="0.83" vaporized=""/>
    <tripinfo id="16" depart="34.00" departLane="256961141#0_0" departPos="5.10" departSpeed="0.00" departDelay="0.12" arrival="246.00" arrivalLane="450554042#0_0" arrivalPos="622.66" arrivalSpeed="16.40" duration="212.00" routeLength="853.74" waitingTime="148.00" waitingCount="1" stopTime="0.00" timeLoss="159.24" rerouteNo="0" devices="tripinfo_16" vType="DEFAULT_VEHTYPE" speedFactor="1.04" vaporized=""/>
    <tripinfo id="38" depart="81.00" departLane="E8_0" departPos="5.10" departSpeed="0.00" departDelay="0.53" arrival="246.00" arrivalLane="218680176#0_1" arrivalPos="98.94" arrivalSpeed="11.16" duration="165.00" routeLength="1637.20" waitingTime="30.00" waitingCount="1" stopTime="0.00" timeLoss="50.81" rerouteNo="0" devices="tripinfo_38" vType="DEFAULT_VEHTYPE" speedFactor="1.00" vaporized=""/>
    <tripinfo id="54" depart="115.00" departLane="256961141#0_0" departPos="5.10" departSpeed="0.00" departDelay="0.65" arrival="247.00" arrivalLane="450554042#0_1" arrivalPos="622.66" arrivalSpeed="17.68" duration="132.00" routeLength="853.74" waitingTime="69.00" waitingCount="1" stopTime="0.00" timeLoss="80.83" rerouteNo="0" devices="tripinfo_54" vType="DEFAULT_VEHTYPE" speedFactor="1.07" vaporized=""/>
    <tripinfo id="75" depart="159.00" departLane="E8_0" departPos="5.10" departSpeed="0.00" departDelay="0.18" arrival="247.00" arrivalLane="226276377#0_1" arrivalPos="135.52" arrivalSpeed="12.51" duration="88.00" routeLength="784.51" waitingTime="17.00" waitingCount="1" stopTime="0.00" timeLoss="30.09" rerouteNo="0" devices="tripinfo_75" vType="DEFAULT_VEHTYPE" speedFactor="0.99" vaporized=""/>
    <tripinfo id="4" depart="9.00" departLane="-661251539_0" departPos="5.10" departSpeed="0.00" departDelay="0.53" arrival="248.00" arrivalLane="-256961141#1_1" arrivalPos="204.72" arrivalSpeed="13.58" duration="239.00" routeLength="872.91" waitingTime="165.00" waitingCount="1" stopTime="0.00" timeLoss="178.48" rerouteNo="0" devices="tripinfo_4" vType="DEFAULT_VEHTYPE" speedFactor="1.00" vaporized=""/>
    <tripinfo id="51" depart="108.00" departLane="666135205#0_0" departPos="5.10" departSpeed="0.00" departDelay="0.00" arrival="248.00" arrivalLane="218680176#0_1" arrivalPos="98.94" arrivalSpeed="11.10" duration="140.00" routeLength="693.09" waitingTime="62.00" waitingCount="2" stopTime="0.00" timeLoss="80.75" rerouteNo="0" devices="tripinfo_51" vType="DEFAULT_VEHTYPE" speedFactor="0.87" vaporized=""/>
    <tripinfo id="62" depart="132.00" departLane="-218680176#1_0" departPos="5.10" departSpeed="0.00" departDelay="0.71" arrival="249.00" arrivalLane="210831345#1_0" arrivalPos="264.29" arrivalSpeed="10.76" duration="117.00" routeLength="699.94" waitingTime="37.00" waitingCount="2" stopTime="0.00" timeLoss="57.04" rerouteNo="0" devices="tripinfo_62" vType="DEFAULT_VEHTYPE" speedFactor="0.86" vaporized=""/>
    <tripinfo id="85" depart="180.00" departLane="E8_0" departPos="5.10" departSpeed="0.00" departDelay="0.00" arrival="249.00" arrivalLane="226276377#0_1" arrivalPos="135.52" arrivalSpeed="12.03" duration="69.00" routeLength="784.51" waitingTime="0.00" waitingCount="0" stopTime="0.00" timeLoss="7.20" rerouteNo="0" devices="tripinfo_85" vType="DEFAULT_VEHTYPE" speedFactor="0.93" vaporized=""/>
    <tripinfo id="9" depart="20.00" departLane="978867529_0" departPos="5.10" departSpeed="0.00" departDelay="0.94" arrival="256.00" arrivalLane="-256961141#1_0" arrivalPos="204.72" arrivalSpeed="10.12" duration="236.00" routeLength="1459.36" waitingTime="96.00" waitingCount="1" stopTime="0.00" timeLoss="112.07" rerouteNo="0" devices="tripinfo_9" vType="DEFAULT_VEHTYPE" speedFactor="0.78" vaporized=""/>
    <tripinfo id="0" depart="0.00" departLane="65746828#0_0" departPos="5.10" departSpeed="0.00" departDelay="0.00" arrival="258.00" arrivalLane="-256961141#1_1" arrivalPos="204.72" arrivalSpeed="10.33" duration="258.00" routeLength="931.50" waitingTime="161.00" waitingCount="2" stopTime="0.00" timeLoss="177.09" rerouteNo="0" devices="tripinfo_0" vType="DEFAULT_VEHTYPE" speedFactor="0.77" vaporized=""/>
    <tripinfo id="20" depart="43.00" departLane="666135205#0_0" departPos="5.10" departSpeed="0.00" departDelay="0.65" arrival="258.00" arrivalLane="-256961141#1_0" arrivalPos="204.72" arrivalSpeed="12.93" duration="215.00" routeLength="1068.72" waitingTime="115.00" waitingCount="2" stopTime="0.00" timeLoss="138.72" rerouteNo="0" devices="tripinfo_20" vType="DEFAULT_VEHTYPE" speedFactor="0.94" vaporized=""/>
    <tripinfo id="33" depart="70.00" departLane="-231177697#2_0" departPos="5.10" departSpeed="0.00" departDelay="0.12" arrival="260.00" arrivalLane="-256961141#1_1" arrivalPos="204.72" arrivalSpeed="12.66" duration="190.00" routeLength="1204.36" waitingTime="76.00" waitingCount="3" stopTime="0.00" timeLoss="103.76" rerouteNo="0" devices="tripinfo_33" vType="DEFAULT_VEHTYPE" speedFactor="0.95" vaporized=""/>
    <tripinfo id="13" depart="28.00" departLane="-218680176#1_0" departPos="5.10" departSpeed="0.00" departDelay="0.47" arrival="261.00" arrivalLane="-256961141#1_0" arrivalPos="204.72" arrivalSpeed="13.90" duration="233.00" routeLength="1207.38" waitingTime="131.00" waitingCount="2" stopTime="0.00" timeLoss="154.54" rerouteNo="0" devices="tripinfo_13" vType="DEFAULT_VEHTYPE" speedFactor="1.05" vaporized=""/>
    <tripinfo id="78" depart="166.00" departLane="-661251539_0" departPos="5.10" departSpeed="0.00" departDelay="0.82" arrival="269.00" arrivalLane="226276377#0_0" arrivalPos="135.52" arrivalSpeed="11.36" duration="103.00" routeLength="783.10" waitingTime="28.00" waitingCount="1" stopTime="0.00" timeLoss="40.46" rerouteNo="0" devices="tripinfo_78" vType="DEFAULT_VEHTYPE" speedFactor="0.89" vaporized=""/>
    <tripinfo id="92" depart="195.00" departLane="-661251539_0" departPos="5.10" departSpeed="0.00" departDelay="0.18" arrival="269.00" arrivalLane="210831347#0_1" arrivalPos="149.88" arrivalSpeed="13.08" duration="74.00" routeLength="731.18" waitingTime="7.00" waitingCount="1" stopTime="0.00" timeLoss="19.31" rerouteNo="0" devices="tripinfo_92" vType="DEFAULT_VEHTYPE" speedFactor="0.98" vaporized=""/>
    <tripinfo id="64" depart="136.00" departLane="978867529_0" departPos="5.10" departSpeed="0.00" departDelay="0.47" arrival="271.00" arrivalLane="39907424_0" arrivalPos="316.44" arrivalSpeed="14.48" duration="135.00" routeLength="1216.15" waitingTime="42.00" waitingCount="1" stopTime="0.00" timeLoss="59.72" rerouteNo="0" devices="tripinfo_64" vType="DEFAULT_VEHTYPE" speedFactor="1.09" vaporized=""/>
    <tripinfo id="91" depart="193.00" departLane="E8_0" departPos="5.10" departSpeed="0.00" departDelay="0.29" arrival="272.00" arrivalLane="-256961141#1_0" arrivalPos="204.72" arrivalSpeed="12.97" duration="79.00" routeLength="832.89" waitingTime="6.00" waitingCount="1" stopTime="0.00" timeLoss="17.91" rerouteNo="0" devices="tripinfo_91" vType="DEFAULT_VEHTYPE" speedFactor="1.00" vaporized=""/>
    <tripinfo id="29" depart="63.00" departLane="-226276377#1_0" departPos="5.10" departSpeed="0.00" departDelay="1.59" arrival="275.00" arrivalLane="210831347#0_1" arrivalPos="149.88" arrivalSpeed="10.33" duration="212.00" routeLength="888.52" waitingTime="126.00" waitingCount="1" stopTime="0.00" timeLoss="137.97" rerouteNo="0" devices="tripinfo_29" vType="DEFAULT_VEHTYPE" speedFactor="0.82" vaporized=""/>
    <tripinfo id="72" depart="153.00" departLane="-661251539_0" departPos="5.10" departSpeed="0.00" departDelay="0.53" arrival="276.00" arrivalLane="153964138#0_0" arrivalPos="337.99" arrivalSpeed="16.34" duration="123.00" routeLength="1239.04" waitingTime="27.00" waitingCount="1" stopTime="0.00" timeLoss="40.79" rerouteNo="0" devices="tripinfo_72" vType="DEFAULT_VEHTYPE" speedFactor="1.04" vaporized=""/>
    <tripinfo id="53" depart="113.00" departLane="-226276377#1_0" departPos="5.10" departSpeed="0.00" departDelay="0.76" arrival="277.00" arrivalLane="210831347#0_1" arrivalPos="149.88" arrivalSpeed="11.89" duration="164.00" routeLength="888.52" waitingTime="77.00" waitingCount="1" stopTime="0.00" timeLoss="95.87" rerouteNo="0" devices="tripinfo_53" vType="DEFAULT_VEHTYPE" speedFactor="0.90" vaporized=""/>
    <tripinfo id="93" depart="197.00" departLane="978867529_0" departPos="5.10" departSpeed="0.00" departDelay="0.06" arrival="280.00" arrivalLane="210831345#1_0" arrivalPos="264.29" arrivalSpeed="12.80" duration="83.00" routeLength="951.92" waitingTime="2.00" waitingCount="1" stopTime="0.00" timeLoss="12.49" rerouteNo="0" devices="tripinfo_93" vType="DEFAULT_VEHTYPE" speedFactor="0.93" vaporized=""/>
    <tripinfo id="45" depart="97.00" departLane="-218680176#1_0" departPos="5.10" departSpeed="0.00" departDelay="1.71" arrival="282.00" arrivalLane="226276377#0_0" arrivalPos="135.52" arrivalSpeed="12.98" duration="185.00" routeLength="1117.57" waitingTime="81.00" waitingCount="3" stopTime="0.00" timeLoss="110.94" rerouteNo="0" devices="tripinfo_45" vType="DEFAULT_VEHTYPE" speedFactor="1.03" vaporized=""/>
    <tripinfo id="28" depart="60.00" departLane="-226276377#1_0" departPos="5.10" departSpeed="0.00" departDelay="0.71" arrival="284.00" arrivalLane="231177697#0_0" arrivalPos="74.44" arrivalSpeed="12.90" duration="224.00" routeLength="1114.63" waitingTime="127.00" waitingCount="1" stopTime="0.00" timeLoss="143.00" rerouteNo="0" devices="tripinfo_28" vType="DEFAULT_VEHTYPE" speedFactor="0.96" vaporized=""/>
    <tripinfo id="77" depart="164.00" departLane="-226276377#1_0" departPos="5.10" departSpeed="0.00" departDelay="0.94" arrival="301.00" arrivalLane="210831345#1_0" arrivalPos="264.29" arrivalSpeed="13.96" duration="137.00" routeLength="977.93" waitingTime="53.00" waitingCount="2" stopTime="0.00" timeLoss="69.73" rerouteNo="0" devices="tripinfo_77" vType="DEFAULT_VEHTYPE" speedFactor="1.01" vaporized=""/>
    <tripinfo id="99" depart="210.00" departLane="E8_0" departPos="5.10" departSpeed="0.00" departDelay="0.35" arrival="301.00" arrivalLane="39907424_0" arrivalPos="316.44" arrivalSpeed="15.80" duration="91.00" routeLength="1303.68" waitingTime="0.00" waitingCount="0" stopTime="0.00" timeLoss="12.59" rerouteNo="0" devices="tripinfo_99" vType="DEFAULT_VEHTYPE" speedFactor="1.16" vaporized=""/>
    <tripinfo id="115" depart="244.00" departLane="-218680176#1_0" departPos="5.10" departSpeed="0.00" departDelay="0.47" arrival="303.00" arrivalLane="153964138#0_2" arrivalPos="337.99" arrivalSpeed="17.22" duration="59.00" routeLength="462.27" waitingTime="21.00" waitingCount="1" stopTime="0.00" timeLoss="30.98" rerouteNo="0" devices="tripinfo_115" vType="DEFAULT_VEHTYPE" speedFactor="1.08" vaporized=""/>
    <tripinfo id="95" depart="202.00" departLane="-661251539_0" departPos="5.10" departSpeed="0.00" departDelay="0.82" arrival="305.00" arrivalLane="210831345#1_1" arrivalPos="264.29" arrivalSpeed="14.40" duration="103.00" routeLength="826.64" waitingTime="30.00" waitingCount="2" stopTime="0.00" timeLoss="47.66" rerouteNo="0" devices="tripinfo_95" vType="DEFAULT_VEHTYPE" speedFactor="1.10" vaporized=""/>
    <tripinfo id="74" depart="157.00" departLane="-226276377#1_0" departPos="5.10" departSpeed="0.00" departDelay="0.29" arrival="306.00" arrivalLane="210831345#1_0" arrivalPos="264.29" arrivalSpeed="12.34" duration="149.00" routeLength="977.93" waitingTime="53.00" waitingCount="2" stopTime="0.00" timeLoss="73.84" rerouteNo="0" devices="tripinfo_74" vType="DEFAULT_VEHTYPE" speedFactor="0.90" vaporized=""/>
    <tripinfo id="128" depart="272.00" departLane="-218680176#1_0" departPos="5.10" departSpeed="0.00" departDelay="0.94" arrival="306.00" arrivalLane="153964138#0_2" arrivalPos="337.99" arrivalSpeed="16.41" duration="34.00" routeLength="462.27" waitingTime="0.00" waitingCount="0" stopTime="0.00" timeLoss="4.99" rerouteNo="0" devices="tripinfo_128" vType="DEFAULT_VEHTYPE" speedFactor="1.03" vaporized=""/>
    <tripinfo id="66" depart="140.00" departLane="978867529_0" departPos="5.10" departSpeed="0.00" departDelay="0.24" arrival="309.00" arrivalLane="450554042#0_0" arrivalPos="622.66" arrivalSpeed="16.42" duration="169.00" routeLength="1868.58" waitingTime="35.00" waitingCount="1" stopTime="0.00" timeLoss="49.96" rerouteNo="0" devices="tripinfo_66" vType="DEFAULT_VEHTYPE" speedFactor="0.99" vaporized=""/>