<?xml version="1.0" encoding="UTF-8"?>

<!-- generated on 2024-09-02 16:29:51 by Eclipse SUMO sumo Version 1.20.0
<configuration xmlns:xsi="http://www.w3.org/2001/XMLSchema-instance" xsi:noNamespaceSchemaLocation="http://sumo.dlr.de/xsd/sumoConfiguration.xsd">

    <input>
        <net-file value="c:\self\School\Master\Disertation\code\RESCO\resco_benchmark\environments/unirii/osm.net.xml.gz"/>
        <route-files value="c:\self\School\Master\Disertation\code\RESCO\resco_benchmark\environments/unirii/osm.passenger.trips.xml"/>
        <additional-files value="c:\self\School\Master\Disertation\code\RESCO\resco_benchmark\environments/unirii/osm.poly.xml.gz"/>
    </input>

    <output>
        <tripinfo-output value="C:\self\School\Master\Disertation\code\RESCO\results\MPLight-tr0-unirii-0-mplight-pressure\tripinfo_43.xml"/>
        <tripinfo-output.write-unfinished value="true"/>
    </output>

    <processing>
        <ignore-route-errors value="true"/>
        <time-to-teleport value="-1"/>
    </processing>

    <routing>
        <device.rerouting.adaptation-steps value="18"/>
        <device.rerouting.adaptation-interval value="10"/>
    </routing>

    <report>
        <verbose value="true"/>
        <no-warnings value="True"/>
        <duration-log.statistics value="true"/>
        <no-step-log value="True"/>
    </report>

    <traci_server>
        <remote-port value="64783"/>
    </traci_server>

    <random_number>
        <random value="true"/>
    </random_number>

    <gui_only>
        <gui-settings-file value="c:\self\School\Master\Disertation\code\RESCO\resco_benchmark\environments/unirii/osm.view.xml"/>
    </gui_only>

</configuration>
-->

<tripinfos xmlns:xsi="http://www.w3.org/2001/XMLSchema-instance" xsi:noNamespaceSchemaLocation="http://sumo.dlr.de/xsd/tripinfo_file.xsd">
    <tripinfo id="3" depart="7.00" departLane="E8_0" departPos="5.10" departSpeed="0.00" departDelay="0.65" arrival="77.00" arrivalLane="-256961141#1_0" arrivalPos="204.72" arrivalSpeed="12.73" duration="70.00" routeLength="832.89" waitingTime="0.00" waitingCount="0" stopTime="0.00" timeLoss="7.24" rerouteNo="0" devices="tripinfo_3" vType="DEFAULT_VEHTYPE" speedFactor="0.97" vaporized=""/>
    <tripinfo id="4" depart="9.00" departLane="-661251539_0" departPos="5.10" departSpeed="0.00" departDelay="0.53" arrival="98.00" arrivalLane="-256961141#1_1" arrivalPos="204.72" arrivalSpeed="13.02" duration="89.00" routeLength="872.91" waitingTime="15.00" waitingCount="1" stopTime="0.00" timeLoss="26.44" rerouteNo="0" devices="tripinfo_4" vType="DEFAULT_VEHTYPE" speedFactor="0.96" vaporized=""/>
    <tripinfo id="6" depart="13.00" departLane="-218680176#1_0" departPos="5.10" departSpeed="0.00" departDelay="0.29" arrival="130.00" arrivalLane="153964138#0_2" arrivalPos="337.99" arrivalSpeed="15.68" duration="117.00" routeLength="462.27" waitingTime="77.00" waitingCount="1" stopTime="0.00" timeLoss="85.63" rerouteNo="0" devices="tripinfo_6" vType="DEFAULT_VEHTYPE" speedFactor="0.96" vaporized=""/>
    <tripinfo id="2" depart="5.00" departLane="666135205#0_0" departPos="5.10" departSpeed="0.00" departDelay="0.76" arrival="137.00" arrivalLane="231177697#0_0" arrivalPos="74.44" arrivalSpeed="11.53" duration="132.00" routeLength="649.17" waitingTime="64.00" waitingCount="2" stopTime="0.00" timeLoss="77.37" rerouteNo="0" devices="tripinfo_2" vType="DEFAULT_VEHTYPE" speedFactor="0.88" vaporized=""/>
    <tripinfo id="14" depart="30.00" departLane="978867529_0" departPos="5.10" departSpeed="0.00" departDelay="0.35" arrival="141.00" arrivalLane="226276377#0_0" arrivalPos="135.52" arrivalSpeed="13.46" duration="111.00" routeLength="1369.55" waitingTime="11.00" waitingCount="1" stopTime="0.00" timeLoss="23.31" rerouteNo="0" devices="tripinfo_14" vType="DEFAULT_VEHTYPE" speedFactor="1.02" vaporized=""/>
    <tripinfo id="18" depart="39.00" departLane="978867529_0" departPos="5.10" departSpeed="0.00" departDelay="0.88" arrival="144.00" arrivalLane="226276377#0_0" arrivalPos="135.52" arrivalSpeed="12.90" duration="105.00" routeLength="1369.55" waitingTime="1.00" waitingCount="1" stopTime="0.00" timeLoss="13.48" rerouteNo="0" devices="tripinfo_18" vType="DEFAULT_VEHTYPE" speedFactor="0.98" vaporized=""/>
    <tripinfo id="35" depart="75.00" departLane="-226276377#1_0" departPos="5.10" departSpeed="0.00" departDelay="0.88" arrival="144.00" arrivalLane="450554042#0_0" arrivalPos="622.66" arrivalSpeed="14.87" duration="69.00" routeLength="763.53" waitingTime="6.00" waitingCount="1" stopTime="0.00" timeLoss="15.85" rerouteNo="0" devices="tripinfo_35" vType="DEFAULT_VEHTYPE" speedFactor="0.91" vaporized=""/>
    <tripinfo id="19" depart="42.00" departLane="978867529_0" departPos="5.10" departSpeed="0.00" departDelay="1.76" arrival="147.00" arrivalLane="226276377#0_0" arrivalPos="135.52" arrivalSpeed="12.15" duration="105.00" routeLength="1369.55" waitingTime="0.00" waitingCount="0" stopTime="0.00" timeLoss="10.56" rerouteNo="0" devices="tripinfo_19" vType="DEFAULT_VEHTYPE" speedFactor="0.95" vaporized=""/>
    <tripinfo id="11" depart="24.00" departLane="-661251539_0" departPos="5.10" departSpeed="0.00" departDelay="0.71" arrival="155.00" arrivalLane="153964138#0_1" arrivalPos="337.99" arrivalSpeed="14.48" duration="131.00" routeLength="1239.04" waitingTime="20.00" waitingCount="2" stopTime="0.00" timeLoss="38.51" rerouteNo="0" devices="tripinfo_11" vType="DEFAULT_VEHTYPE" speedFactor="0.93" vaporized=""/>
    <tripinfo id="25" depart="53.00" departLane="-661251539_0" departPos="5.10" departSpeed="0.00" departDelay="0.06" arrival="155.00" arrivalLane="153964138#0_0" arrivalPos="337.99" arrivalSpeed="16.23" duration="102.00" routeLength="1239.04" waitingTime="2.00" waitingCount="1" stopTime="0.00" timeLoss="17.22" rerouteNo="0" devices="tripinfo_25" vType="DEFAULT_VEHTYPE" speedFactor="1.01" vaporized=""/>
    <tripinfo id="46" depart="98.00" departLane="978867529_0" departPos="5.10" departSpeed="0.00" departDelay="0.59" arrival="169.00" arrivalLane="210831347#0_0" arrivalPos="149.88" arrivalSpeed="14.69" duration="71.00" routeLength="812.56" waitingTime="3.00" waitingCount="1" stopTime="0.00" timeLoss="18.46" rerouteNo="0" devices="tripinfo_46" vType="DEFAULT_VEHTYPE" speedFactor="1.06" vaporized=""/>
    <tripinfo id="50" depart="106.00" departLane="-218680176#1_0" departPos="5.10" departSpeed="0.00" departDelay="0.12" arrival="179.00" arrivalLane="231177697#0_0" arrivalPos="74.44" arrivalSpeed="11.53" duration="73.00" routeLength="205.97" waitingTime="42.00" waitingCount="1" stopTime="0.00" timeLoss="55.35" rerouteNo="0" devices="tripinfo_50" vType="DEFAULT_VEHTYPE" speedFactor="0.85" vaporized=""/>
    <tripinfo id="31" depart="66.00" departLane="65746828#0_0" departPos="5.10" departSpeed="0.00" departDelay="0.35" arrival="187.00" arrivalLane="231177697#0_0" arrivalPos="74.44" arrivalSpeed="14.03" duration="121.00" routeLength="558.79" waitingTime="63.00" waitingCount="2" stopTime="0.00" timeLoss="80.45" rerouteNo="0" devices="tripinfo_31" vType="DEFAULT_VEHTYPE" speedFactor="1.04" vaporized=""/>
    <tripinfo id="61" depart="130.00" departLane="978867529_0" departPos="5.10" departSpeed="0.00" departDelay="0.82" arrival="189.00" arrivalLane="218680176#0_0" arrivalPos="98.94" arrivalSpeed="11.74" duration="59.00" routeLength="442.15" waitingTime="17.00" waitingCount="1" stopTime="0.00" timeLoss="26.72" rerouteNo="0" devices="tripinfo_61" vType="DEFAULT_VEHTYPE" speedFactor="0.89" vaporized=""/>
    <tripinfo id="54" depart="115.00" departLane="256961141#0_0" departPos="5.10" departSpeed="0.00" departDelay="0.65" arrival="194.00" arrivalLane="450554042#0_2" arrivalPos="622.66" arrivalSpeed="19.38" duration="79.00" routeLength="853.74" waitingTime="20.00" waitingCount="1" stopTime="0.00" timeLoss="32.48" rerouteNo="0" devices="tripinfo_54" vType="DEFAULT_VEHTYPE" speedFactor="1.18" vaporized=""/>
    <tripinfo id="12" depart="26.00" departLane="E8_0" departPos="5.10" departSpeed="0.00" departDelay="0.59" arrival="195.00" arrivalLane="210831347#0_1" arrivalPos="149.88" arrivalSpeed="12.36" duration="169.00" routeLength="1367.17" waitingTime="54.00" waitingCount="2" stopTime="0.00" timeLoss="71.05" rerouteNo="0" devices="tripinfo_12" vType="DEFAULT_VEHTYPE" speedFactor="0.97" vaporized=""/>
    <tripinfo id="16" depart="34.00" departLane="256961141#0_0" departPos="5.10" departSpeed="0.00" departDelay="0.12" arrival="195.00" arrivalLane="450554042#0_0" arrivalPos="622.66" arrivalSpeed="17.00" duration="161.00" routeLength="853.74" waitingTime="99.00" waitingCount="1" stopTime="0.00" timeLoss="108.32" rerouteNo="0" devices="tripinfo_16" vType="DEFAULT_VEHTYPE" speedFactor="1.04" vaporized=""/>
    <tripinfo id="59" depart="125.00" departLane="65746828#0_0" departPos="5.10" departSpeed="0.00" departDelay="0.06" arrival="200.00" arrivalLane="153964138#0_0" arrivalPos="337.99" arrivalSpeed="20.50" duration="75.00" routeLength="834.49" waitingTime="17.00" waitingCount="1" stopTime="0.00" timeLoss="28.68" rerouteNo="0" devices="tripinfo_59" vType="DEFAULT_VEHTYPE" speedFactor="1.24" vaporized=""/>
    <tripinfo id="42" depart="89.00" departLane="-661251539_0" departPos="5.10" departSpeed="0.00" departDelay="0.06" arrival="203.00" arrivalLane="153964138#0_0" arrivalPos="337.99" arrivalSpeed="19.38" duration="114.00" routeLength="1239.04" waitingTime="19.00" waitingCount="1" stopTime="0.00" timeLoss="40.96" rerouteNo="0" devices="tripinfo_42" vType="DEFAULT_VEHTYPE" speedFactor="1.17" vaporized=""/>
    <tripinfo id="52" depart="111.00" departLane="-231177697#2_0" departPos="5.10" departSpeed="0.00" departDelay="0.88" arrival="206.00" arrivalLane="226276377#0_0" arrivalPos="135.52" arrivalSpeed="13.62" duration="95.00" routeLength="1114.55" waitingTime="6.00" waitingCount="1" stopTime="0.00" timeLoss="23.34" rerouteNo="0" devices="tripinfo_52" vType="DEFAULT_VEHTYPE" speedFactor="1.06" vaporized=""/>
    <tripinfo id="1" depart="3.00" departLane="-231177697#2_0" departPos="5.10" departSpeed="0.00" departDelay="0.88" arrival="207.00" arrivalLane="210831345#1_0" arrivalPos="264.29" arrivalSpeed="11.90" duration="204.00" routeLength="696.92" waitingTime="129.00" waitingCount="2" stopTime="0.00" timeLoss="144.75" rerouteNo="0" devices="tripinfo_1" vType="DEFAULT_VEHTYPE" speedFactor="0.87" vaporized=""/>
    <tripinfo id="21" depart="45.00" departLane="-231177697#2_0" departPos="5.10" departSpeed="0.00" departDelay="0.53" arrival="208.00" arrivalLane="210831345#1_1" arrivalPos="264.29" arrivalSpeed="12.33" duration="163.00" routeLength="696.92" waitingTime="90.00" waitingCount="2" stopTime="0.00" timeLoss="109.11" rerouteNo="0" devices="tripinfo_21" vType="DEFAULT_VEHTYPE" speedFactor="0.96" vaporized=""/>
    <tripinfo id="34" depart="72.00" departLane="-231177697#2_0" departPos="5.10" departSpeed="0.00" departDelay="0.00" arrival="208.00" arrivalLane="210831345#1_0" arrivalPos="264.29" arrivalSpeed="14.51" duration="136.00" routeLength="696.92" waitingTime="64.00" waitingCount="2" stopTime="0.00" timeLoss="91.43" rerouteNo="0" devices="tripinfo_34" vType="DEFAULT_VEHTYPE" speedFactor="1.15" vaporized=""/>
    <tripinfo id="39" depart="83.00" departLane="-231177697#2_0" departPos="5.10" departSpeed="0.00" departDelay="0.41" arrival="209.00" arrivalLane="210831345#1_1" arrivalPos="264.29" arrivalSpeed="14.21" duration="126.00" routeLength="696.92" waitingTime="54.00" waitingCount="2" stopTime="0.00" timeLoss="79.72" rerouteNo="0" devices="tripinfo_39" vType="DEFAULT_VEHTYPE" speedFactor="1.10" vaporized=""/>
    <tripinfo id="36" depart="77.00" departLane="978867529_0" departPos="5.10" departSpeed="0.00" departDelay="0.76" arrival="211.00" arrivalLane="210831345#1_1" arrivalPos="264.29" arrivalSpeed="13.95" duration="134.00" routeLength="951.92" waitingTime="53.00" waitingCount="2" stopTime="0.00" timeLoss="73.83" rerouteNo="0" devices="tripinfo_36" vType="DEFAULT_VEHTYPE" speedFactor="1.09" vaporized=""/>
    <tripinfo id="55" depart="117.00" departLane="978867529_0" departPos="5.10" departSpeed="0.00" departDelay="0.53" arrival="213.00" arrivalLane="210831345#1_1" arrivalPos="264.29" arrivalSpeed="15.41" duration="96.00" routeLength="951.92" waitingTime="23.00" waitingCount="1" stopTime="0.00" timeLoss="40.04" rerouteNo="0" devices="tripinfo_55" vType="DEFAULT_VEHTYPE" speedFactor="1.18" vaporized=""/>
    <tripinfo id="10" depart="23.00" departLane="978867529_0" departPos="5.10" departSpeed="0.00" departDelay="1.82" arrival="214.00" arrivalLane="231177697#0_1" arrivalPos="74.44" arrivalSpeed="12.16" duration="191.00" routeLength="437.06" waitingTime="150.00" waitingCount="1" stopTime="0.00" timeLoss="158.51" rerouteNo="0" devices="tripinfo_10" vType="DEFAULT_VEHTYPE" speedFactor="0.89" vaporized=""/>
    <tripinfo id="15" depart="33.00" departLane="978867529_0" departPos="5.10" departSpeed="0.00" departDelay="1.24" arrival="215.00" arrivalLane="231177697#0_1" arrivalPos="74.44" arrivalSpeed="12.48" duration="182.00" routeLength="437.06" waitingTime="144.00" waitingCount="1" stopTime="0.00" timeLoss="152.93" rerouteNo="0" devices="tripinfo_15" vType="DEFAULT_VEHTYPE" speedFactor="0.97" vaporized=""/>
    <tripinfo id="17" depart="36.00" departLane="-661251539_0" departPos="5.10" departSpeed="0.00" departDelay="0.00" arrival="217.00" arrivalLane="218680176#0_1" arrivalPos="98.94" arrivalSpeed="11.85" duration="181.00" routeLength="1001.21" waitingTime="84.00" waitingCount="1" stopTime="0.00" timeLoss="96.33" rerouteNo="0" devices="tripinfo_17" vType="DEFAULT_VEHTYPE" speedFactor="0.87" vaporized=""/>
    <tripinfo id="32" depart="68.00" departLane="978867529_0" departPos="5.10" departSpeed="0.00" departDelay="0.24" arrival="217.00" arrivalLane="231177697#0_1" arrivalPos="74.44" arrivalSpeed="12.61" duration="149.00" routeLength="437.06" waitingTime="108.00" waitingCount="1" stopTime="0.00" timeLoss="119.45" rerouteNo="0" devices="tripinfo_32" vType="DEFAULT_VEHTYPE" speedFactor="0.97" vaporized=""/>
    <tripinfo id="7" depart="15.00" departLane="65746828#0_0" departPos="5.10" departSpeed="0.00" departDelay="0.18" arrival="218.00" arrivalLane="218680176#0_1" arrivalPos="98.94" arrivalSpeed="13.20" duration="203.00" routeLength="602.71" waitingTime="143.00" waitingCount="2" stopTime="0.00" timeLoss="158.88" rerouteNo="0" devices="tripinfo_7" vType="DEFAULT_VEHTYPE" speedFactor="1.01" vaporized=""/>
    <tripinfo id="47" depart="100.00" departLane="-218680176#1_0" departPos="5.10" departSpeed="0.00" departDelay="0.47" arrival="219.00" arrivalLane="210831347#0_0" arrivalPos="149.88" arrivalSpeed="13.68" duration="119.00" routeLength="560.58" waitingTime="56.00" waitingCount="2" stopTime="0.00" timeLoss="80.20" rerouteNo="0" devices="tripinfo_47" vType="DEFAULT_VEHTYPE" speedFactor="1.08" vaporized=""/>
    <tripinfo id="22" depart="47.00" departLane="-218680176#1_0" departPos="5.10" departSpeed="0.00" departDelay="0.41" arrival="220.00" arrivalLane="210831345#1_1" arrivalPos="264.29" arrivalSpeed="10.81" duration="173.00" routeLength="699.94" waitingTime="94.00" waitingCount="1" stopTime="0.00" timeLoss="111.92" rerouteNo="0" devices="tripinfo_22" vType="DEFAULT_VEHTYPE" speedFactor="0.85" vaporized=""/>
    <tripinfo id="23" depart="50.00" departLane="-218680176#1_0" departPos="5.10" departSpeed="0.00" departDelay="1.29" arrival="220.00" arrivalLane="210831345#1_0" arrivalPos="264.29" arrivalSpeed="14.17" duration="170.00" routeLength="699.94" waitingTime="94.00" waitingCount="1" stopTime="0.00" timeLoss="119.57" rerouteNo="0" devices="tripinfo_23" vType="DEFAULT_VEHTYPE" speedFactor="1.04" vaporized=""/>
    <tripinfo id="38" depart="81.00" departLane="E8_0" departPos="5.10" departSpeed="0.00" departDelay="0.53" arrival="220.00" arrivalLane="218680176#0_1" arrivalPos="98.94" arrivalSpeed="14.06" duration="139.00" routeLength="1637.20" waitingTime="8.00" waitingCount="1" stopTime="0.00" timeLoss="26.64" rerouteNo="0" devices="tripinfo_38" vType="DEFAULT_VEHTYPE" speedFactor="1.02" vaporized=""/>
    <tripinfo id="57" depart="121.00" departLane="E8_0" departPos="5.10" departSpeed="0.00" departDelay="0.29" arrival="229.00" arrivalLane="39907424_0" arrivalPos="316.44" arrivalSpeed="13.72" duration="108.00" routeLength="1303.68" waitingTime="5.00" waitingCount="1" stopTime="0.00" timeLoss="18.35" rerouteNo="0" devices="tripinfo_57" vType="DEFAULT_VEHTYPE" speedFactor="1.02" vaporized=""/>
    <tripinfo id="49" depart="105.00" departLane="E8_0" departPos="5.10" departSpeed="0.00" departDelay="1.24" arrival="233.00" arrivalLane="39907424_0" arrivalPos="316.44" arrivalSpeed="12.22" duration="128.00" routeLength="1303.68" waitingTime="18.00" waitingCount="1" stopTime="0.00" timeLoss="32.81" rerouteNo="0" devices="tripinfo_49" vType="DEFAULT_VEHTYPE" speedFactor="0.95" vaporized=""/>
    <tripinfo id="68" depart="144.00" departLane="-218680176#1_0" departPos="5.10" departSpeed="0.00" departDelay="0.00" arrival="234.00" arrivalLane="231177697#0_0" arrivalPos="74.44" arrivalSpeed="11.97" duration="90.00" routeLength="205.97" waitingTime="54.00" waitingCount="2" stopTime="0.00" timeLoss="73.96" rerouteNo="0" devices="tripinfo_68" vType="DEFAULT_VEHTYPE" speedFactor="0.94" vaporized=""/>
    <tripinfo id="26" depart="56.00" departLane="-231177697#2_0" departPos="5.10" departSpeed="0.00" departDelay="0.94" arrival="237.00" arrivalLane="450554042#0_0" arrivalPos="622.66" arrivalSpeed="14.43" duration="181.00" routeLength="1613.58" waitingTime="53.00" waitingCount="2" stopTime="0.00" timeLoss="71.03" rerouteNo="0" devices="tripinfo_26" vType="DEFAULT_VEHTYPE" speedFactor="0.94" vaporized=""/>
    <tripinfo id="28" depart="60.00" departLane="-226276377#1_0" departPos="5.10" departSpeed="0.00" departDelay="0.71" arrival="240.00" arrivalLane="231177697#0_0" arrivalPos="74.44" arrivalSpeed="13.52" duration="180.00" routeLength="1114.63" waitingTime="82.00" waitingCount="2" stopTime="0.00" timeLoss="105.16" rerouteNo="0" devices="tripinfo_28" vType="DEFAULT_VEHTYPE" speedFactor="1.04" vaporized=""/>
    <tripinfo id="74" depart="157.00" departLane="-226276377#1_0" departPos="5.10" departSpeed="0.00" departDelay="0.29" arrival="241.00" arrivalLane="210831345#1_0" arrivalPos="264.29" arrivalSpeed="11.71" duration="84.00" routeLength="977.93" waitingTime="0.00" waitingCount="0" stopTime="0.00" timeLoss="8.28" rerouteNo="0" devices="tripinfo_74" vType="DEFAULT_VEHTYPE" speedFactor="0.89" vaporized=""/>
    <tripinfo id="29" depart="63.00" departLane="-226276377#1_0" departPos="5.10" departSpeed="0.00" departDelay="1.59" arrival="242.00" arrivalLane="210831347#0_1" arrivalPos="149.88" arrivalSpeed="15.99" duration="179.00" routeLength="888.52" waitingTime="105.00" waitingCount="2" stopTime="0.00" timeLoss="129.74" rerouteNo="0" devices="tripinfo_29" vType="DEFAULT_VEHTYPE" speedFactor="1.24" vaporized=""/>
    <tripinfo id="53" depart="113.00" departLane="-226276377#1_0" departPos="5.10" departSpeed="0.00" departDelay="0.76" arrival="248.00" arrivalLane="210831347#0_1" arrivalPos="149.88" arrivalSpeed="12.12" duration="135.00" routeLength="888.52" waitingTime="50.00" waitingCount="2" stopTime="0.00" timeLoss="65.53" rerouteNo="0" devices="tripinfo_53" vType="DEFAULT_VEHTYPE" speedFactor="0.88" vaporized=""/>
    <tripinfo id="78" depart="166.00" departLane="-661251539_0" departPos="5.10" departSpeed="0.00" departDelay="0.82" arrival="249.00" arrivalLane="226276377#0_0" arrivalPos="135.52" arrivalSpeed="12.04" duration="83.00" routeLength="783.10" waitingTime="12.00" waitingCount="1" stopTime="0.00" timeLoss="24.51" rerouteNo="0" devices="tripinfo_78" vType="DEFAULT_VEHTYPE" speedFactor="0.93" vaporized=""/>
    <tripinfo id="79" depart="168.00" departLane="-231177697#2_0" departPos="5.10" departSpeed="0.00" departDelay="0.71" arrival="250.00" arrivalLane="153964138#0_0" arrivalPos="337.99" arrivalSpeed="15.12" duration="82.00" routeLength="417.38" waitingTime="45.00" waitingCount="1" stopTime="0.00" timeLoss="53.90" rerouteNo="0" devices="tripinfo_79" vType="DEFAULT_VEHTYPE" speedFactor="0.98" vaporized=""/>
    <tripinfo id="27" depart="58.00" departLane="65746828#0_0" departPos="5.10" departSpeed="0.00" departDelay="0.82" arrival="252.00" arrivalLane="226276377#0_0" arrivalPos="135.52" arrivalSpeed="12.63" duration="194.00" routeLength="841.69" waitingTime="119.00" waitingCount="1" stopTime="0.00" timeLoss="135.41" rerouteNo="0" devices="tripinfo_27" vType="DEFAULT_VEHTYPE" speedFactor="0.96" vaporized=""/>
    <tripinfo id="72" depart="153.00" departLane="-661251539_0" departPos="5.10" departSpeed="0.00" departDelay="0.53" arrival="253.00" arrivalLane="153964138#0_1" arrivalPos="337.99" arrivalSpeed="18.28" duration="100.00" routeLength="1239.04" waitingTime="10.00" waitingCount="1" stopTime="0.00" timeLoss="23.79" rerouteNo="0" devices="tripinfo_72" vType="DEFAULT_VEHTYPE" speedFactor="1.12" vaporized=""/>
    <tripinfo id="64" depart="136.00" departLane="978867529_0" departPos="5.10" departSpeed="0.00" departDelay="0.47" arrival="254.00" arrivalLane="39907424_0" arrivalPos="316.44" arrivalSpeed="11.71" duration="118.00" routeLength="1216.15" waitingTime="14.00" waitingCount="1" stopTime="0.00" timeLoss="29.03" rerouteNo="0" devices="tripinfo_64" vType="DEFAULT_VEHTYPE" speedFactor="0.93" vaporized=""/>
    <tripinfo id="62" depart="132.00" departLane="-218680176#1_0" departPos="5.10" departSpeed="0.00" departDelay="0.71" arrival="255.00" arrivalLane="210831345#1_0" arrivalPos="264.29" arrivalSpeed="11.54" duration="123.00" routeLength="699.94" waitingTime="46.00" waitingCount="2" stopTime="0.00" timeLoss="66.06" rerouteNo="0" devices="tripinfo_62" vType="DEFAULT_VEHTYPE" speedFactor="0.91" vaporized=""/>
    <tripinfo id="45" depart="97.00" departLane="-218680176#1_0" departPos="5.10" departSpeed="0.00" departDelay="1.71" arrival="264.00" arrivalLane="226276377#0_0" arrivalPos="135.52" arrivalSpeed="12.48" duration="167.00" routeLength="1117.57" waitingTime="58.00" waitingCount="3" stopTime="0.00" timeLoss="83.05" rerouteNo="0" devices="tripinfo_45" vType="DEFAULT_VEHTYPE" speedFactor="0.91" vaporized=""/>
    <tripinfo id="30" depart="64.00" departLane="E8_0" departPos="5.10" departSpeed="0.00" departDelay="0.47" arrival="268.00" arrivalLane="226276377#0_1" arrivalPos="135.52" arrivalSpeed="12.99" duration="204.00" routeLength="784.51" waitingTime="135.00" waitingCount="1" stopTime="0.00" timeLoss="143.23" rerouteNo="0" devices="tripinfo_30" vType="DEFAULT_VEHTYPE" speedFactor="0.94" vaporized=""/>
    <tripinfo id="75" depart="159.00" departLane="E8_0" departPos="5.10" departSpeed="0.00" departDelay="0.18" arrival="272.00" arrivalLane="226276377#0_1" arrivalPos="135.52" arrivalSpeed="11.39" duration="113.00" routeLength="784.51" waitingTime="38.00" waitingCount="1" stopTime="0.00" timeLoss="47.26" rerouteNo="0" devices="tripinfo_75" vType="DEFAULT_VEHTYPE" speedFactor="0.88" vaporized=""/>
    <tripinfo id="85" depart="180.00" departLane="E8_0" departPos="5.10" departSpeed="0.00" departDelay="0.00" arrival="273.00" arrivalLane="226276377#0_1" arrivalPos="135.52" arrivalSpeed="13.15" duration="93.00" routeLength="784.51" waitingTime="25.00" waitingCount="1" stopTime="0.00" timeLoss="37.01" rerouteNo="0" devices="tripinfo_85" vType="DEFAULT_VEHTYPE" speedFactor="1.02" vaporized=""/>
    <tripinfo id="0" depart="0.00" departLane="65746828#0_0" departPos="5.10" departSpeed="0.00" departDelay="0.00" arrival="274.00" arrivalLane="-256961141#1_1" arrivalPos="204.72" arrivalSpeed="12.80" duration="274.00" routeLength="931.50" waitingTime="194.00" waitingCount="2" stopTime="0.00" timeLoss="209.79" rerouteNo="0" devices="tripinfo_0" vType="DEFAULT_VEHTYPE" speedFactor="0.97" vaporized=""/>
    <tripinfo id="66" depart="140.00" departLane="978867529_0" departPos="5.10" departSpeed="0.00" departDelay="0.24" arrival="275.00" arrivalLane="450554042#0_0" arrivalPos="622.66" arrivalSpeed="18.15" duration="135.00" routeLength="1868.58" waitingTime="13.00" waitingCount="1" stopTime="0.00" timeLoss="34.33" rerouteNo="0" devices="tripinfo_66" vType="DEFAULT_VEHTYPE" speedFactor="1.16" vaporized=""/>
    <tripinfo id="9" depart="20.00" departLane="978867529_0" departPos="5.10" departSpeed="0.00" departDelay="0.94" arrival="276.00" arrivalLane="-256961141#1_1" arrivalPos="204.72" arrivalSpeed="14.44" duration="256.00" routeLength="1459.36" waitingTime="147.00" waitingCount="2" stopTime="0.00" timeLoss="166.34" rerouteNo="0" devices="tripinfo_9" vType="DEFAULT_VEHTYPE" speedFactor="1.08" vaporized=""/>
    <tripinfo id="40" depart="85.00" departLane="65746828#0_0" departPos="5.10" departSpeed="0.00" departDelay="0.29" arrival="276.00" arrivalLane="210831345#1_0" arrivalPos="264.29" arrivalSpeed="11.49" duration="191.00" routeLength="446.75" waitingTime="140.00" waitingCount="2" stopTime="0.00" timeLoss="154.06" rerouteNo="0" devices="tripinfo_40" vType="DEFAULT_VEHTYPE" speedFactor="0.87" vaporized=""/>
    <tripinfo id="20" depart="43.00" departLane="666135205#0_0" departPos="5.10" departSpeed="0.00" departDelay="0.65" arrival="280.00" arrivalLane="-256961141#1_1" arrivalPos="204.72" arrivalSpeed="12.46" duration="237.00" routeLength="1068.72" waitingTime="141.00" waitingCount="2" stopTime="0.00" timeLoss="157.24" rerouteNo="0" devices="tripinfo_20" vType="DEFAULT_VEHTYPE" speedFactor="0.91" vaporized=""/>
    <tripinfo id="33" depart="70.00" departLane="-231177697#2_0" departPos="5.10" departSpeed="0.00" departDelay="0.12" arrival="281.00" arrivalLane="-256961141#1_1" arrivalPos="204.72" arrivalSpeed="12.05" duration="211.00" routeLength="1204.36" waitingTime="100.00" waitingCount="3" stopTime="0.00" timeLoss="124.82" rerouteNo="0" devices="tripinfo_33" vType="DEFAULT_VEHTYPE" speedFactor="0.94" vaporized=""/>
    <tripinfo id="77" depart="164.00" departLane="-226276377#1_0" departPos="5.10" departSpeed="0.00" departDelay="0.94" arrival="282.00" arrivalLane="210831345#1_0" arrivalPos="264.29" arrivalSpeed="11.88" duration="118.00" routeLength="977.93" waitingTime="24.00" waitingCount="2" stopTime="0.00" timeLoss="42.44" rerouteNo="0" devices="tripinfo_77" vType="DEFAULT_VEHTYPE" speedFactor="0.91" vaporized=""/>
    <tripinfo id="44" depart="94.00" departLane="-218680176#1_0" departPos="5.10" departSpeed="0.00" departDelay="0.82" arrival="283.00" arrivalLane="-256961141#1_1" arrivalPos="204.72" arrivalSpeed="14.34" duration="189.00" routeLength="1207.38" waitingTime="82.00" waitingCount="3" stopTime="0.00" timeLoss="112.15" rerouteNo="0" devices="tripinfo_44" vType="DEFAULT_VEHTYPE" speedFactor="1.07" vaporized=""/>
    <tripinfo id="13" depart="28.00" departLane="-218680176#1_0" departPos="5.10" departSpeed="0.00" departDelay="0.47" arrival="286.00" arrivalLane="-256961141#1_1" arrivalPos="204.72" arrivalSpeed="11.65" duration="258.00" routeLength="1207.38" waitingTime="140.00" waitingCount="3" stopTime="0.00" timeLoss="164.18" rerouteNo="0" devices="tripinfo_13" vType="DEFAULT_VEHTYPE" speedFactor="0.87" vaporized=""/>
    <tripinfo id="82" depart="174.00" departLane="978867529_0" departPos="5.10" departSpeed="0.00" departDelay="0.35" arrival="288.00" arrivalLane="-256961141#1_1" arrivalPos="204.72" arrivalSpeed="13.51" duration="114.00" routeLength="1459.36" waitingTime="0.00" waitingCount="0" stopTime="0.00" timeLoss="15.35" rerouteNo="0" devices="tripinfo_82" vType="DEFAULT_VEHTYPE" speedFactor="0.98" vaporized=""/>
    <tripinfo id="95" depart="202.00" departLane="-661251539_0" departPos="5.10" departSpeed="0.00" departDelay="0.82" arrival="289.00" arrivalLane="210831345#1_0" arrivalPos="264.29" arrivalSpeed="14.21" duration="87.00" routeLength="826.64" waitingTime="12.00" waitingCount="1" stopTime="0.00" timeLoss="27.30" rerouteNo="0" devices="tripinfo_95" vType="DEFAULT_VEHTYPE" speedFactor="1.03" vaporized=""/>
    <tripinfo id="63" depart="135.00" departLane="-218680176#1_0" departPos="5.10" departSpeed="0.00" departDelay="1.59" arrival="292.00" arrivalLane="450554042#0_0" arrivalPos="622.66" arrivalSpeed="15.21" duration="157.00" routeLength="1616.60" waitingTime="20.00" waitingCount="3" stopTime="0.00" timeLoss="50.43" rerouteNo="0" devices="tripinfo_63" vType="DEFAULT_VEHTYPE" speedFactor="0.98" vaporized=""/>
    <tripinfo id="91" depart="193.00" departLane="E8_0" departPos="5.10" departSpeed="0.00" departDelay="0.29" arrival="299.00" arrivalLane="-256961141#1_0" arrivalPos="204.72" arrivalSpeed="11.65" duration="106.00" routeLength="832.89" waitingTime="24.00" waitingCount="1" stopTime="0.00" timeLoss="34.47" rerouteNo="0" devices="tripinfo_91" vType="DEFAULT_VEHTYPE" speedFactor="0.85" vaporized=""/>
    <tripinfo id="115" depart="244.00" departLane="-218680176#1_0" departPos="5.10" departSpeed="0.00" departDelay="0.47" arrival="303.00" arrivalLane="153964138#0_2" arrivalPos="337.99" arrivalSpeed="16.87" duration="59.00" routeLength="462.27" waitingTime="21.00" waitingCount="1" stopTime="0.00" timeLoss="31.58" rerouteNo="0" devices="tripinfo_115" vType="DEFAULT_VEHTYPE" speedFactor="1.08" vaporized=""/>
    <tripinfo id="128" depart="272.00" departLane="-218680176#1_0" departPos="5.10" departSpeed="0.00" departDelay="0.94" arrival="305.00" arrivalLane="153964138#0_2" arrivalPos="337.99" arrivalSpeed="17.72" duration="33.00" routeLength="462.27" waitingTime="0.00" waitingCount="0" stopTime="0.00" timeLoss="5.21" rerouteNo="0" devices="tripinfo_128" vType="DEFAULT_VEHTYPE" speedFactor="1.09" vaporized=""/>
    <tripinfo id="114" depart="242.00" departLane="-226276377#1_0" departPos="5.10" departSpeed="0.00" departDelay="0.59" arrival="313.00" arrivalLane="450554042#0_0" arrivalPos="622.66" arrivalSpeed="16.76" duration="71.00" routeLength="763.53" waitingTime="15.00" waitingCount="1" stopTime="0.00" timeLoss="26.12" rerouteNo="0" devices="tripinfo_114" vType="DEFAULT_VEHTYPE" speedFactor="1.07" vaporized=""/>