<?xml version="1.0" encoding="UTF-8"?>

<!-- generated on 2024-09-02 16:28:40 by Eclipse SUMO sumo Version 1.20.0
<configuration xmlns:xsi="http://www.w3.org/2001/XMLSchema-instance" xsi:noNamespaceSchemaLocation="http://sumo.dlr.de/xsd/sumoConfiguration.xsd">

    <input>
        <net-file value="c:\self\School\Master\Disertation\code\RESCO\resco_benchmark\environments/unirii/osm.net.xml.gz"/>
        <route-files value="c:\self\School\Master\Disertation\code\RESCO\resco_benchmark\environments/unirii/osm.passenger.trips.xml"/>
        <additional-files value="c:\self\School\Master\Disertation\code\RESCO\resco_benchmark\environments/unirii/osm.poly.xml.gz"/>
    </input>

    <output>
        <tripinfo-output value="C:\self\School\Master\Disertation\code\RESCO\results\MPLight-tr0-unirii-0-mplight-pressure\tripinfo_35.xml"/>
        <tripinfo-output.write-unfinished value="true"/>
    </output>

    <processing>
        <ignore-route-errors value="true"/>
        <time-to-teleport value="-1"/>
    </processing>

    <routing>
        <device.rerouting.adaptation-steps value="18"/>
        <device.rerouting.adaptation-interval value="10"/>
    </routing>

    <report>
        <verbose value="true"/>
        <no-warnings value="True"/>
        <duration-log.statistics value="true"/>
        <no-step-log value="True"/>
    </report>

    <traci_server>
        <remote-port value="64737"/>
    </traci_server>

    <random_number>
        <random value="true"/>
    </random_number>

    <gui_only>
        <gui-settings-file value="c:\self\School\Master\Disertation\code\RESCO\resco_benchmark\environments/unirii/osm.view.xml"/>
    </gui_only>

</configuration>
-->

<tripinfos xmlns:xsi="http://www.w3.org/2001/XMLSchema-instance" xsi:noNamespaceSchemaLocation="http://sumo.dlr.de/xsd/tripinfo_file.xsd">
    <tripinfo id="16" depart="34.00" departLane="256961141#0_0" departPos="5.10" departSpeed="0.00" departDelay="0.12" arrival="91.00" arrivalLane="450554042#0_1" arrivalPos="622.66" arrivalSpeed="17.63" duration="57.00" routeLength="853.74" waitingTime="0.00" waitingCount="0" stopTime="0.00" timeLoss="8.26" rerouteNo="0" devices="tripinfo_16" vType="DEFAULT_VEHTYPE" speedFactor="1.12" vaporized=""/>
    <tripinfo id="4" depart="9.00" departLane="-661251539_0" departPos="5.10" departSpeed="0.00" departDelay="0.53" arrival="99.00" arrivalLane="-256961141#1_1" arrivalPos="204.72" arrivalSpeed="12.39" duration="90.00" routeLength="872.91" waitingTime="11.00" waitingCount="1" stopTime="0.00" timeLoss="25.50" rerouteNo="0" devices="tripinfo_4" vType="DEFAULT_VEHTYPE" speedFactor="0.95" vaporized=""/>
    <tripinfo id="6" depart="13.00" departLane="-218680176#1_0" departPos="5.10" departSpeed="0.00" departDelay="0.29" arrival="101.00" arrivalLane="153964138#0_2" arrivalPos="337.99" arrivalSpeed="20.31" duration="88.00" routeLength="462.27" waitingTime="50.00" waitingCount="1" stopTime="0.00" timeLoss="63.69" rerouteNo="0" devices="tripinfo_6" vType="DEFAULT_VEHTYPE" speedFactor="1.22" vaporized=""/>
    <tripinfo id="2" depart="5.00" departLane="666135205#0_0" departPos="5.10" departSpeed="0.00" departDelay="0.76" arrival="137.00" arrivalLane="231177697#0_0" arrivalPos="74.44" arrivalSpeed="14.26" duration="132.00" routeLength="649.17" waitingTime="69.00" waitingCount="2" stopTime="0.00" timeLoss="87.92" rerouteNo="0" devices="tripinfo_2" vType="DEFAULT_VEHTYPE" speedFactor="1.09" vaporized=""/>
    <tripinfo id="30" depart="64.00" departLane="E8_0" departPos="5.10" departSpeed="0.00" departDelay="0.47" arrival="142.00" arrivalLane="226276377#0_1" arrivalPos="135.52" arrivalSpeed="13.74" duration="78.00" routeLength="784.51" waitingTime="14.00" waitingCount="1" stopTime="0.00" timeLoss="24.56" rerouteNo="0" devices="tripinfo_30" vType="DEFAULT_VEHTYPE" speedFactor="1.07" vaporized=""/>
    <tripinfo id="31" depart="66.00" departLane="65746828#0_0" departPos="5.10" departSpeed="0.00" departDelay="0.35" arrival="143.00" arrivalLane="231177697#0_0" arrivalPos="74.44" arrivalSpeed="13.03" duration="77.00" routeLength="558.79" waitingTime="22.00" waitingCount="1" stopTime="0.00" timeLoss="35.21" rerouteNo="0" devices="tripinfo_31" vType="DEFAULT_VEHTYPE" speedFactor="1.02" vaporized=""/>
    <tripinfo id="35" depart="75.00" departLane="-226276377#1_0" departPos="5.10" departSpeed="0.00" departDelay="0.88" arrival="147.00" arrivalLane="450554042#0_0" arrivalPos="622.66" arrivalSpeed="13.65" duration="72.00" routeLength="763.53" waitingTime="5.00" waitingCount="1" stopTime="0.00" timeLoss="16.87" rerouteNo="0" devices="tripinfo_35" vType="DEFAULT_VEHTYPE" speedFactor="0.88" vaporized=""/>
    <tripinfo id="0" depart="0.00" departLane="65746828#0_0" departPos="5.10" departSpeed="0.00" departDelay="0.00" arrival="148.00" arrivalLane="-256961141#1_1" arrivalPos="204.72" arrivalSpeed="14.23" duration="148.00" routeLength="931.50" waitingTime="68.00" waitingCount="2" stopTime="0.00" timeLoss="87.12" rerouteNo="0" devices="tripinfo_0" vType="DEFAULT_VEHTYPE" speedFactor="1.03" vaporized=""/>
    <tripinfo id="9" depart="20.00" departLane="978867529_0" departPos="5.10" departSpeed="0.00" departDelay="0.94" arrival="151.00" arrivalLane="-256961141#1_1" arrivalPos="204.72" arrivalSpeed="12.58" duration="131.00" routeLength="1459.36" waitingTime="10.00" waitingCount="2" stopTime="0.00" timeLoss="32.56" rerouteNo="0" devices="tripinfo_9" vType="DEFAULT_VEHTYPE" speedFactor="0.98" vaporized=""/>
    <tripinfo id="11" depart="24.00" departLane="-661251539_0" departPos="5.10" departSpeed="0.00" departDelay="0.71" arrival="154.00" arrivalLane="153964138#0_1" arrivalPos="337.99" arrivalSpeed="16.03" duration="130.00" routeLength="1239.04" waitingTime="22.00" waitingCount="2" stopTime="0.00" timeLoss="44.47" rerouteNo="0" devices="tripinfo_11" vType="DEFAULT_VEHTYPE" speedFactor="1.00" vaporized=""/>
    <tripinfo id="25" depart="53.00" departLane="-661251539_0" departPos="5.10" departSpeed="0.00" departDelay="0.06" arrival="155.00" arrivalLane="153964138#0_0" arrivalPos="337.99" arrivalSpeed="16.45" duration="102.00" routeLength="1239.04" waitingTime="5.00" waitingCount="1" stopTime="0.00" timeLoss="19.28" rerouteNo="0" devices="tripinfo_25" vType="DEFAULT_VEHTYPE" speedFactor="1.03" vaporized=""/>
    <tripinfo id="14" depart="30.00" departLane="978867529_0" departPos="5.10" departSpeed="0.00" departDelay="0.35" arrival="166.00" arrivalLane="226276377#0_0" arrivalPos="135.52" arrivalSpeed="14.25" duration="136.00" routeLength="1369.55" waitingTime="35.00" waitingCount="1" stopTime="0.00" timeLoss="53.10" rerouteNo="0" devices="tripinfo_14" vType="DEFAULT_VEHTYPE" speedFactor="1.08" vaporized=""/>
    <tripinfo id="20" depart="43.00" departLane="666135205#0_0" departPos="5.10" departSpeed="0.00" departDelay="0.65" arrival="167.00" arrivalLane="-256961141#1_1" arrivalPos="204.72" arrivalSpeed="11.33" duration="124.00" routeLength="1068.72" waitingTime="32.00" waitingCount="1" stopTime="0.00" timeLoss="44.04" rerouteNo="0" devices="tripinfo_20" vType="DEFAULT_VEHTYPE" speedFactor="0.90" vaporized=""/>
    <tripinfo id="61" depart="130.00" departLane="978867529_0" departPos="5.10" departSpeed="0.00" departDelay="0.82" arrival="167.00" arrivalLane="218680176#0_0" arrivalPos="98.94" arrivalSpeed="12.84" duration="37.00" routeLength="442.15" waitingTime="0.00" waitingCount="0" stopTime="0.00" timeLoss="6.41" rerouteNo="0" devices="tripinfo_61" vType="DEFAULT_VEHTYPE" speedFactor="0.95" vaporized=""/>
    <tripinfo id="18" depart="39.00" departLane="978867529_0" departPos="5.10" departSpeed="0.00" departDelay="0.88" arrival="169.00" arrivalLane="226276377#0_0" arrivalPos="135.52" arrivalSpeed="14.68" duration="130.00" routeLength="1369.55" waitingTime="33.00" waitingCount="1" stopTime="0.00" timeLoss="46.83" rerouteNo="0" devices="tripinfo_18" vType="DEFAULT_VEHTYPE" speedFactor="1.09" vaporized=""/>
    <tripinfo id="3" depart="7.00" departLane="E8_0" departPos="5.10" departSpeed="0.00" departDelay="0.65" arrival="170.00" arrivalLane="-256961141#1_0" arrivalPos="204.72" arrivalSpeed="15.25" duration="163.00" routeLength="832.89" waitingTime="97.00" waitingCount="1" stopTime="0.00" timeLoss="109.13" rerouteNo="0" devices="tripinfo_3" vType="DEFAULT_VEHTYPE" speedFactor="1.13" vaporized=""/>
    <tripinfo id="19" depart="42.00" departLane="978867529_0" departPos="5.10" departSpeed="0.00" departDelay="1.76" arrival="171.00" arrivalLane="226276377#0_0" arrivalPos="135.52" arrivalSpeed="14.80" duration="129.00" routeLength="1369.55" waitingTime="31.00" waitingCount="1" stopTime="0.00" timeLoss="45.76" rerouteNo="0" devices="tripinfo_19" vType="DEFAULT_VEHTYPE" speedFactor="1.09" vaporized=""/>
    <tripinfo id="46" depart="98.00" departLane="978867529_0" departPos="5.10" departSpeed="0.00" departDelay="0.59" arrival="173.00" arrivalLane="210831347#0_0" arrivalPos="149.88" arrivalSpeed="12.66" duration="75.00" routeLength="812.56" waitingTime="2.00" waitingCount="1" stopTime="0.00" timeLoss="16.12" rerouteNo="0" devices="tripinfo_46" vType="DEFAULT_VEHTYPE" speedFactor="0.96" vaporized=""/>
    <tripinfo id="59" depart="125.00" departLane="65746828#0_0" departPos="5.10" departSpeed="0.00" departDelay="0.06" arrival="183.00" arrivalLane="153964138#0_1" arrivalPos="337.99" arrivalSpeed="17.29" duration="58.00" routeLength="834.49" waitingTime="0.00" waitingCount="0" stopTime="0.00" timeLoss="5.84" rerouteNo="0" devices="tripinfo_59" vType="DEFAULT_VEHTYPE" speedFactor="1.08" vaporized=""/>
    <tripinfo id="79" depart="168.00" departLane="-231177697#2_0" departPos="5.10" departSpeed="0.00" departDelay="0.71" arrival="202.00" arrivalLane="153964138#0_0" arrivalPos="337.99" arrivalSpeed="16.25" duration="34.00" routeLength="417.38" waitingTime="0.00" waitingCount="0" stopTime="0.00" timeLoss="7.06" rerouteNo="0" devices="tripinfo_79" vType="DEFAULT_VEHTYPE" speedFactor="0.98" vaporized=""/>
    <tripinfo id="50" depart="106.00" departLane="-218680176#1_0" departPos="5.10" departSpeed="0.00" departDelay="0.12" arrival="203.00" arrivalLane="231177697#0_0" arrivalPos="74.44" arrivalSpeed="11.47" duration="97.00" routeLength="205.97" waitingTime="68.00" waitingCount="1" stopTime="0.00" timeLoss="80.77" rerouteNo="0" devices="tripinfo_50" vType="DEFAULT_VEHTYPE" speedFactor="0.92" vaporized=""/>
    <tripinfo id="40" depart="85.00" departLane="65746828#0_0" departPos="5.10" departSpeed="0.00" departDelay="0.29" arrival="206.00" arrivalLane="210831345#1_0" arrivalPos="264.29" arrivalSpeed="12.93" duration="121.00" routeLength="446.75" waitingTime="78.00" waitingCount="1" stopTime="0.00" timeLoss="87.76" rerouteNo="0" devices="tripinfo_40" vType="DEFAULT_VEHTYPE" speedFactor="0.99" vaporized=""/>
    <tripinfo id="52" depart="111.00" departLane="-231177697#2_0" departPos="5.10" departSpeed="0.00" departDelay="0.88" arrival="207.00" arrivalLane="226276377#0_0" arrivalPos="135.52" arrivalSpeed="12.54" duration="96.00" routeLength="1114.55" waitingTime="4.00" waitingCount="1" stopTime="0.00" timeLoss="19.40" rerouteNo="0" devices="tripinfo_52" vType="DEFAULT_VEHTYPE" speedFactor="0.98" vaporized=""/>
    <tripinfo id="28" depart="60.00" departLane="-226276377#1_0" departPos="5.10" departSpeed="0.00" departDelay="0.71" arrival="213.00" arrivalLane="231177697#0_0" arrivalPos="74.44" arrivalSpeed="12.29" duration="153.00" routeLength="1114.63" waitingTime="46.00" waitingCount="3" stopTime="0.00" timeLoss="69.46" rerouteNo="0" devices="tripinfo_28" vType="DEFAULT_VEHTYPE" speedFactor="0.93" vaporized=""/>
    <tripinfo id="49" depart="105.00" departLane="E8_0" departPos="5.10" departSpeed="0.00" departDelay="1.24" arrival="218.00" arrivalLane="39907424_0" arrivalPos="316.44" arrivalSpeed="11.05" duration="113.00" routeLength="1303.68" waitingTime="0.00" waitingCount="0" stopTime="0.00" timeLoss="10.30" rerouteNo="0" devices="tripinfo_49" vType="DEFAULT_VEHTYPE" speedFactor="0.88" vaporized=""/>
    <tripinfo id="29" depart="63.00" departLane="-226276377#1_0" departPos="5.10" departSpeed="0.00" departDelay="1.59" arrival="219.00" arrivalLane="210831347#0_1" arrivalPos="149.88" arrivalSpeed="13.67" duration="156.00" routeLength="888.52" waitingTime="79.00" waitingCount="2" stopTime="0.00" timeLoss="97.04" rerouteNo="0" devices="tripinfo_29" vType="DEFAULT_VEHTYPE" speedFactor="1.05" vaporized=""/>
    <tripinfo id="57" depart="121.00" departLane="E8_0" departPos="5.10" departSpeed="0.00" departDelay="0.29" arrival="221.00" arrivalLane="39907424_0" arrivalPos="316.44" arrivalSpeed="13.42" duration="100.00" routeLength="1303.68" waitingTime="0.00" waitingCount="0" stopTime="0.00" timeLoss="13.64" rerouteNo="0" devices="tripinfo_57" vType="DEFAULT_VEHTYPE" speedFactor="1.05" vaporized=""/>
    <tripinfo id="12" depart="26.00" departLane="E8_0" departPos="5.10" departSpeed="0.00" departDelay="0.59" arrival="222.00" arrivalLane="210831347#0_1" arrivalPos="149.88" arrivalSpeed="12.44" duration="196.00" routeLength="1367.17" waitingTime="78.00" waitingCount="2" stopTime="0.00" timeLoss="97.68" rerouteNo="0" devices="tripinfo_12" vType="DEFAULT_VEHTYPE" speedFactor="0.97" vaporized=""/>
    <tripinfo id="1" depart="3.00" departLane="-231177697#2_0" departPos="5.10" departSpeed="0.00" departDelay="0.88" arrival="224.00" arrivalLane="210831345#1_1" arrivalPos="264.29" arrivalSpeed="15.81" duration="221.00" routeLength="696.92" waitingTime="160.00" waitingCount="2" stopTime="0.00" timeLoss="179.00" rerouteNo="0" devices="tripinfo_1" vType="DEFAULT_VEHTYPE" speedFactor="1.22" vaporized=""/>
    <tripinfo id="21" depart="45.00" departLane="-231177697#2_0" departPos="5.10" departSpeed="0.00" departDelay="0.53" arrival="230.00" arrivalLane="210831345#1_1" arrivalPos="264.29" arrivalSpeed="12.88" duration="185.00" routeLength="696.92" waitingTime="117.00" waitingCount="2" stopTime="0.00" timeLoss="133.12" rerouteNo="0" devices="tripinfo_21" vType="DEFAULT_VEHTYPE" speedFactor="0.99" vaporized=""/>
    <tripinfo id="42" depart="89.00" departLane="-661251539_0" departPos="5.10" departSpeed="0.00" departDelay="0.06" arrival="231.00" arrivalLane="153964138#0_0" arrivalPos="337.99" arrivalSpeed="13.35" duration="142.00" routeLength="1239.04" waitingTime="25.00" waitingCount="2" stopTime="0.00" timeLoss="44.04" rerouteNo="0" devices="tripinfo_42" vType="DEFAULT_VEHTYPE" speedFactor="0.88" vaporized=""/>
    <tripinfo id="26" depart="56.00" departLane="-231177697#2_0" departPos="5.10" departSpeed="0.00" departDelay="0.94" arrival="232.00" arrivalLane="450554042#0_0" arrivalPos="622.66" arrivalSpeed="16.39" duration="176.00" routeLength="1613.58" waitingTime="55.00" waitingCount="2" stopTime="0.00" timeLoss="73.66" rerouteNo="0" devices="tripinfo_26" vType="DEFAULT_VEHTYPE" speedFactor="1.01" vaporized=""/>
    <tripinfo id="34" depart="72.00" departLane="-231177697#2_0" departPos="5.10" departSpeed="0.00" departDelay="0.00" arrival="232.00" arrivalLane="210831345#1_1" arrivalPos="264.29" arrivalSpeed="13.56" duration="160.00" routeLength="696.92" waitingTime="89.00" waitingCount="1" stopTime="0.00" timeLoss="108.88" rerouteNo="0" devices="tripinfo_34" vType="DEFAULT_VEHTYPE" speedFactor="1.00" vaporized=""/>
    <tripinfo id="69" depart="147.00" departLane="666135205#0_0" departPos="5.10" departSpeed="0.00" departDelay="0.88" arrival="233.00" arrivalLane="153964138#0_0" arrivalPos="337.99" arrivalSpeed="15.53" duration="86.00" routeLength="924.87" waitingTime="8.00" waitingCount="1" stopTime="0.00" timeLoss="20.64" rerouteNo="0" devices="tripinfo_69" vType="DEFAULT_VEHTYPE" speedFactor="0.97" vaporized=""/>
    <tripinfo id="39" depart="83.00" departLane="-231177697#2_0" departPos="5.10" departSpeed="0.00" departDelay="0.41" arrival="234.00" arrivalLane="210831345#1_1" arrivalPos="264.29" arrivalSpeed="12.84" duration="151.00" routeLength="696.92" waitingTime="87.00" waitingCount="1" stopTime="0.00" timeLoss="99.82" rerouteNo="0" devices="tripinfo_39" vType="DEFAULT_VEHTYPE" speedFactor="1.00" vaporized=""/>
    <tripinfo id="36" depart="77.00" departLane="978867529_0" departPos="5.10" departSpeed="0.00" departDelay="0.76" arrival="235.00" arrivalLane="210831345#1_0" arrivalPos="264.29" arrivalSpeed="16.28" duration="158.00" routeLength="951.92" waitingTime="80.00" waitingCount="2" stopTime="0.00" timeLoss="105.27" rerouteNo="0" devices="tripinfo_36" vType="DEFAULT_VEHTYPE" speedFactor="1.25" vaporized=""/>
    <tripinfo id="10" depart="23.00" departLane="978867529_0" departPos="5.10" departSpeed="0.00" departDelay="1.82" arrival="240.00" arrivalLane="231177697#0_1" arrivalPos="74.44" arrivalSpeed="10.42" duration="217.00" routeLength="437.06" waitingTime="170.00" waitingCount="1" stopTime="0.00" timeLoss="180.49" rerouteNo="0" devices="tripinfo_10" vType="DEFAULT_VEHTYPE" speedFactor="0.78" vaporized=""/>
    <tripinfo id="17" depart="36.00" departLane="-661251539_0" departPos="5.10" departSpeed="0.00" departDelay="0.00" arrival="240.00" arrivalLane="218680176#0_1" arrivalPos="98.94" arrivalSpeed="14.92" duration="204.00" routeLength="1001.21" waitingTime="124.00" waitingCount="1" stopTime="0.00" timeLoss="136.77" rerouteNo="0" devices="tripinfo_17" vType="DEFAULT_VEHTYPE" speedFactor="1.10" vaporized=""/>
    <tripinfo id="55" depart="117.00" departLane="978867529_0" departPos="5.10" departSpeed="0.00" departDelay="0.53" arrival="240.00" arrivalLane="210831345#1_1" arrivalPos="264.29" arrivalSpeed="12.34" duration="123.00" routeLength="951.92" waitingTime="37.00" waitingCount="1" stopTime="0.00" timeLoss="50.44" rerouteNo="0" devices="tripinfo_55" vType="DEFAULT_VEHTYPE" speedFactor="0.90" vaporized=""/>
    <tripinfo id="5" depart="11.00" departLane="-226276377#1_0" departPos="5.10" departSpeed="0.00" departDelay="0.41" arrival="241.00" arrivalLane="218680176#0_1" arrivalPos="98.94" arrivalSpeed="15.99" duration="230.00" routeLength="1158.55" waitingTime="143.00" waitingCount="2" stopTime="0.00" timeLoss="165.31" rerouteNo="0" devices="tripinfo_5" vType="DEFAULT_VEHTYPE" speedFactor="1.24" vaporized=""/>
    <tripinfo id="22" depart="47.00" departLane="-218680176#1_0" departPos="5.10" departSpeed="0.00" departDelay="0.41" arrival="241.00" arrivalLane="210831345#1_0" arrivalPos="264.29" arrivalSpeed="13.57" duration="194.00" routeLength="699.94" waitingTime="123.00" waitingCount="2" stopTime="0.00" timeLoss="144.80" rerouteNo="0" devices="tripinfo_22" vType="DEFAULT_VEHTYPE" speedFactor="1.06" vaporized=""/>
    <tripinfo id="27" depart="58.00" departLane="65746828#0_0" departPos="5.10" departSpeed="0.00" departDelay="0.82" arrival="241.00" arrivalLane="226276377#0_0" arrivalPos="135.52" arrivalSpeed="14.85" duration="183.00" routeLength="841.69" waitingTime="110.00" waitingCount="2" stopTime="0.00" timeLoss="131.64" rerouteNo="0" devices="tripinfo_27" vType="DEFAULT_VEHTYPE" speedFactor="1.09" vaporized=""/>
    <tripinfo id="15" depart="33.00" departLane="978867529_0" departPos="5.10" departSpeed="0.00" departDelay="1.24" arrival="242.00" arrivalLane="231177697#0_1" arrivalPos="74.44" arrivalSpeed="12.59" duration="209.00" routeLength="437.06" waitingTime="168.00" waitingCount="1" stopTime="0.00" timeLoss="178.77" rerouteNo="0" devices="tripinfo_15" vType="DEFAULT_VEHTYPE" speedFactor="0.95" vaporized=""/>
    <tripinfo id="7" depart="15.00" departLane="65746828#0_0" departPos="5.10" departSpeed="0.00" departDelay="0.18" arrival="243.00" arrivalLane="218680176#0_1" arrivalPos="98.94" arrivalSpeed="14.79" duration="228.00" routeLength="602.71" waitingTime="172.00" waitingCount="2" stopTime="0.00" timeLoss="187.83" rerouteNo="0" devices="tripinfo_7" vType="DEFAULT_VEHTYPE" speedFactor="1.11" vaporized=""/>
    <tripinfo id="23" depart="50.00" departLane="-218680176#1_0" departPos="5.10" departSpeed="0.00" departDelay="1.29" arrival="243.00" arrivalLane="210831345#1_1" arrivalPos="264.29" arrivalSpeed="12.69" duration="193.00" routeLength="699.94" waitingTime="119.00" waitingCount="2" stopTime="0.00" timeLoss="140.99" rerouteNo="0" devices="tripinfo_23" vType="DEFAULT_VEHTYPE" speedFactor="0.99" vaporized=""/>
    <tripinfo id="32" depart="68.00" departLane="978867529_0" departPos="5.10" departSpeed="0.00" departDelay="0.24" arrival="244.00" arrivalLane="231177697#0_1" arrivalPos="74.44" arrivalSpeed="14.04" duration="176.00" routeLength="437.06" waitingTime="136.00" waitingCount="1" stopTime="0.00" timeLoss="149.32" rerouteNo="0" devices="tripinfo_32" vType="DEFAULT_VEHTYPE" speedFactor="1.09" vaporized=""/>
    <tripinfo id="62" depart="132.00" departLane="-218680176#1_0" departPos="5.10" departSpeed="0.00" departDelay="0.71" arrival="244.00" arrivalLane="210831345#1_0" arrivalPos="264.29" arrivalSpeed="14.56" duration="112.00" routeLength="699.94" waitingTime="44.00" waitingCount="1" stopTime="0.00" timeLoss="65.41" rerouteNo="0" devices="tripinfo_62" vType="DEFAULT_VEHTYPE" speedFactor="1.11" vaporized=""/>
    <tripinfo id="78" depart="166.00" departLane="-661251539_0" departPos="5.10" departSpeed="0.00" departDelay="0.82" arrival="244.00" arrivalLane="226276377#0_0" arrivalPos="135.52" arrivalSpeed="13.83" duration="78.00" routeLength="783.10" waitingTime="7.00" waitingCount="1" stopTime="0.00" timeLoss="26.26" rerouteNo="0" devices="tripinfo_78" vType="DEFAULT_VEHTYPE" speedFactor="1.06" vaporized=""/>
    <tripinfo id="51" depart="108.00" departLane="666135205#0_0" departPos="5.10" departSpeed="0.00" departDelay="0.00" arrival="248.00" arrivalLane="218680176#0_1" arrivalPos="98.94" arrivalSpeed="10.74" duration="140.00" routeLength="693.09" waitingTime="64.00" waitingCount="2" stopTime="0.00" timeLoss="79.08" rerouteNo="0" devices="tripinfo_51" vType="DEFAULT_VEHTYPE" speedFactor="0.84" vaporized=""/>
    <tripinfo id="60" depart="128.00" departLane="666135205#0_0" departPos="5.10" departSpeed="0.00" departDelay="0.94" arrival="252.00" arrivalLane="218680176#0_1" arrivalPos="98.94" arrivalSpeed="10.33" duration="124.00" routeLength="693.09" waitingTime="38.00" waitingCount="2" stopTime="0.00" timeLoss="56.46" rerouteNo="0" devices="tripinfo_60" vType="DEFAULT_VEHTYPE" speedFactor="0.77" vaporized=""/>
    <tripinfo id="91" depart="193.00" departLane="E8_0" departPos="5.10" departSpeed="0.00" departDelay="0.29" arrival="253.00" arrivalLane="-256961141#1_0" arrivalPos="204.72" arrivalSpeed="15.84" duration="60.00" routeLength="832.89" waitingTime="0.00" waitingCount="0" stopTime="0.00" timeLoss="7.85" rerouteNo="0" devices="tripinfo_91" vType="DEFAULT_VEHTYPE" speedFactor="1.16" vaporized=""/>
    <tripinfo id="68" depart="144.00" departLane="-218680176#1_0" departPos="5.10" departSpeed="0.00" departDelay="0.00" arrival="260.00" arrivalLane="231177697#0_0" arrivalPos="74.44" arrivalSpeed="11.75" duration="116.00" routeLength="205.97" waitingTime="79.00" waitingCount="2" stopTime="0.00" timeLoss="99.24" rerouteNo="0" devices="tripinfo_68" vType="DEFAULT_VEHTYPE" speedFactor="0.93" vaporized=""/>
    <tripinfo id="47" depart="100.00" departLane="-218680176#1_0" departPos="5.10" departSpeed="0.00" departDelay="0.47" arrival="269.00" arrivalLane="210831347#0_0" arrivalPos="149.88" arrivalSpeed="14.97" duration="169.00" routeLength="560.58" waitingTime="107.00" waitingCount="2" stopTime="0.00" timeLoss="130.86" rerouteNo="0" devices="tripinfo_47" vType="DEFAULT_VEHTYPE" speedFactor="1.12" vaporized=""/>
    <tripinfo id="41" depart="88.00" departLane="65746828#0_0" departPos="5.10" departSpeed="0.00" departDelay="1.18" arrival="272.00" arrivalLane="450554042#0_0" arrivalPos="622.66" arrivalSpeed="15.45" duration="184.00" routeLength="1340.72" waitingTime="79.00" waitingCount="2" stopTime="0.00" timeLoss="97.93" rerouteNo="0" devices="tripinfo_41" vType="DEFAULT_VEHTYPE" speedFactor="0.97" vaporized=""/>
    <tripinfo id="86" depart="183.00" departLane="256961141#0_0" departPos="5.10" departSpeed="0.00" departDelay="0.88" arrival="273.00" arrivalLane="39907424_0" arrivalPos="316.44" arrivalSpeed="10.45" duration="90.00" routeLength="873.95" waitingTime="0.00" waitingCount="0" stopTime="0.00" timeLoss="12.22" rerouteNo="0" devices="tripinfo_86" vType="DEFAULT_VEHTYPE" speedFactor="0.78" vaporized=""/>
    <tripinfo id="95" depart="202.00" departLane="-661251539_0" departPos="5.10" departSpeed="0.00" departDelay="0.82" arrival="283.00" arrivalLane="210831345#1_0" arrivalPos="264.29" arrivalSpeed="13.34" duration="81.00" routeLength="826.64" waitingTime="9.00" waitingCount="1" stopTime="0.00" timeLoss="22.06" rerouteNo="0" devices="tripinfo_95" vType="DEFAULT_VEHTYPE" speedFactor="1.02" vaporized=""/>
    <tripinfo id="90" depart="191.00" departLane="666135205#0_0" departPos="5.10" departSpeed="0.00" departDelay="0.41" arrival="287.00" arrivalLane="231177697#0_0" arrivalPos="74.44" arrivalSpeed="13.78" duration="96.00" routeLength="649.17" waitingTime="32.00" waitingCount="2" stopTime="0.00" timeLoss="48.98" rerouteNo="0" devices="tripinfo_90" vType="DEFAULT_VEHTYPE" speedFactor="1.04" vaporized=""/>
    <tripinfo id="64" depart="136.00" departLane="978867529_0" departPos="5.10" departSpeed="0.00" departDelay="0.47" arrival="297.00" arrivalLane="39907424_0" arrivalPos="316.44" arrivalSpeed="14.08" duration="161.00" routeLength="1216.15" waitingTime="66.00" waitingCount="1" stopTime="0.00" timeLoss="81.76" rerouteNo="0" devices="tripinfo_64" vType="DEFAULT_VEHTYPE" speedFactor="1.04" vaporized=""/>
    <tripinfo id="73" depart="155.00" departLane="256961141#0_0" departPos="5.10" departSpeed="0.00" departDelay="0.41" arrival="299.00" arrivalLane="231177697#0_0" arrivalPos="74.44" arrivalSpeed="10.60" duration="144.00" routeLength="1163.55" waitingTime="27.00" waitingCount="2" stopTime="0.00" timeLoss="47.44" rerouteNo="0" devices="tripinfo_73" vType="DEFAULT_VEHTYPE" speedFactor="0.85" vaporized=""/>
    <tripinfo id="117" depart="248.00" departLane="-231177697#2_0" departPos="5.10" departSpeed="0.00" departDelay="0.24" arrival="299.00" arrivalLane="153964138#0_0" arrivalPos="337.99" arrivalSpeed="15.87" duration="51.00" routeLength="417.38" waitingTime="13.00" waitingCount="1" stopTime="0.00" timeLoss="22.52" rerouteNo="0" devices="tripinfo_117" vType="DEFAULT_VEHTYPE" speedFactor="0.95" vaporized=""/>
    <tripinfo id="99" depart="210.00" departLane="E8_0" departPos="5.10" departSpeed="0.00" departDelay="0.35" arrival="303.00" arrivalLane="39907424_0" arrivalPos="316.44" arrivalSpeed="17.34" duration="93.00" routeLength="1303.68" waitingTime="6.00" waitingCount="1" stopTime="0.00" timeLoss="22.26" rerouteNo="0" devices="tripinfo_99" vType="DEFAULT_VEHTYPE" speedFactor="1.29" vaporized=""/>
    <tripinfo id="56" depart="119.00" departLane="256961141#0_0" departPos="5.10" departSpeed="0.00" departDelay="0.41" arrival="304.00" arrivalLane="153964138#0_1" arrivalPos="337.99" arrivalSpeed="16.15" duration="185.00" routeLength="1439.25" waitingTime="67.00" waitingCount="2" stopTime="0.00" timeLoss="87.21" rerouteNo="0" devices="tripinfo_56" vType="DEFAULT_VEHTYPE" speedFactor="0.99" vaporized=""/>
    <tripinfo id="72" depart="153.00" departLane="-661251539_0" departPos="5.10" departSpeed="0.00" departDelay="0.53" arrival="305.00" arrivalLane="153964138#0_0" arrivalPos="337.99" arrivalSpeed="16.19" duration="152.00" routeLength="1239.04" waitingTime="48.00" waitingCount="2" stopTime="0.00" timeLoss="64.95" rerouteNo="0" devices="tripinfo_72" vType="DEFAULT_VEHTYPE" speedFactor="0.98" vaporized=""/>
    <tripinfo id="104" depart="222.00" departLane="-661251539_0" departPos="5.10" departSpeed="0.00" departDelay="1.76" arrival="311.00" arrivalLane="450554042#0_0" arrivalPos="622.66" arrivalSpeed="16.86" duration="89.00" routeLength="1282.13" waitingTime="0.00" waitingCount="0" stopTime="0.00" timeLoss="8.85" rerouteNo="0" devices="tripinfo_104" vType="DEFAULT_VEHTYPE" speedFactor="1.03" vaporized=""/>
    <tripinfo id="132" depart="280.00" departLane="978867529_0" departPos="5.10" departSpeed="0.00" departDelay="0.47" arrival="312.00" arrivalLane="231177697#0_1" arrivalPos="74.44" arrivalSpeed="14.77" duration="32.00" routeLength="437.06" waitingTime="0.00" waitingCount="0" stopTime="0.00" timeLoss="4.52" rerouteNo="0" devices="tripinfo_132" vType="DEFAULT_VEHTYPE" speedFactor="1.07" vaporized=""/>
    <tripinfo id="38" depart="81.00" departLane="E8_0" departPos="5.10" departSpeed="0.00" departDelay="0.53" arrival="317.00" arrivalLane="218680176#0_1" arrivalPos="98.94" arrivalSpeed="11.77" duration="236.00" routeLength="1637.20" waitingTime="74.00" waitingCount="3" stopTime="0.00" timeLoss="101.12" rerouteNo="0" devices="tripinfo_38" vType="DEFAULT_VEHTYPE" speedFactor="0.85" vaporized=""/>
    <tripinfo id="76" depart="161.00" departLane="-661251539_0" departPos="5.10" departSpeed="0.00" departDelay="0.06" arrival="318.00" arrivalLane="218680176#0_1" arrivalPos="98.94" arrivalSpeed="11.90" duration="157.00" routeLength="1001.21" waitingTime="48.00" waitingCount="3" stopTime="0.00" timeLoss="73.31" rerouteNo="0" devices="tripinfo_76" vType="DEFAULT_VEHTYPE" speedFactor="0.87" vaporized=""/>
    <tripinfo id="45" depart="97.00" departLane="-218680176#1_0" departPos="5.10" departSpeed="0.00" departDelay="1.71" arrival="320.00" arrivalLane="226276377#0_0" arrivalPos="135.52" arrivalSpeed="12.27" duration="223.00" routeLength="1117.57" waitingTime="108.00" waitingCount="2" stopTime="0.00" timeLoss="138.48" rerouteNo="0" devices="tripinfo_45" vType="DEFAULT_VEHTYPE" speedFactor="0.89" vaporized=""/>
    <tripinfo id="70" depart="149.00" departLane="256961141#0_0" departPos="5.10" departSpeed="0.00" departDelay="0.76" arrival="320.00" arrivalLane="218680176#0_1" arrivalPos="98.94" arrivalSpeed="13.92" duration="171.00" routeLength="1207.47" waitingTime="55.00" waitingCount="4" stopTime="0.00" timeLoss="87.14" rerouteNo="0" devices="tripinfo_70" vType="DEFAULT_VEHTYPE" speedFactor="1.01" vaporized=""/>