<?xml version="1.0" encoding="UTF-8"?>

<!-- generated on 2024-09-02 16:33:04 by Eclipse SUMO sumo Version 1.20.0
<configuration xmlns:xsi="http://www.w3.org/2001/XMLSchema-instance" xsi:noNamespaceSchemaLocation="http://sumo.dlr.de/xsd/sumoConfiguration.xsd">

    <input>
        <net-file value="c:\self\School\Master\Disertation\code\RESCO\resco_benchmark\environments/unirii/osm.net.xml.gz"/>
        <route-files value="c:\self\School\Master\Disertation\code\RESCO\resco_benchmark\environments/unirii/osm.passenger.trips.xml"/>
        <additional-files value="c:\self\School\Master\Disertation\code\RESCO\resco_benchmark\environments/unirii/osm.poly.xml.gz"/>
    </input>

    <output>
        <tripinfo-output value="C:\self\School\Master\Disertation\code\RESCO\results\MPLight-tr0-unirii-0-mplight-pressure\tripinfo_65.xml"/>
        <tripinfo-output.write-unfinished value="true"/>
    </output>

    <processing>
        <ignore-route-errors value="true"/>
        <time-to-teleport value="-1"/>
    </processing>

    <routing>
        <device.rerouting.adaptation-steps value="18"/>
        <device.rerouting.adaptation-interval value="10"/>
    </routing>

    <report>
        <verbose value="true"/>
        <no-warnings value="True"/>
        <duration-log.statistics value="true"/>
        <no-step-log value="True"/>
    </report>

    <traci_server>
        <remote-port value="64911"/>
    </traci_server>

    <random_number>
        <random value="true"/>
    </random_number>

    <gui_only>
        <gui-settings-file value="c:\self\School\Master\Disertation\code\RESCO\resco_benchmark\environments/unirii/osm.view.xml"/>
    </gui_only>

</configuration>
-->

<tripinfos xmlns:xsi="http://www.w3.org/2001/XMLSchema-instance" xsi:noNamespaceSchemaLocation="http://sumo.dlr.de/xsd/tripinfo_file.xsd">
    <tripinfo id="3" depart="7.00" departLane="E8_0" departPos="5.10" departSpeed="0.00" departDelay="0.65" arrival="83.00" arrivalLane="-256961141#1_0" arrivalPos="204.72" arrivalSpeed="12.06" duration="76.00" routeLength="832.89" waitingTime="0.00" waitingCount="0" stopTime="0.00" timeLoss="8.70" rerouteNo="0" devices="tripinfo_3" vType="DEFAULT_VEHTYPE" speedFactor="0.91" vaporized=""/>
    <tripinfo id="11" depart="24.00" departLane="-661251539_0" departPos="5.10" departSpeed="0.00" departDelay="0.71" arrival="110.00" arrivalLane="153964138#0_0" arrivalPos="337.99" arrivalSpeed="18.12" duration="86.00" routeLength="1239.04" waitingTime="0.00" waitingCount="0" stopTime="0.00" timeLoss="9.08" rerouteNo="0" devices="tripinfo_11" vType="DEFAULT_VEHTYPE" speedFactor="1.11" vaporized=""/>
    <tripinfo id="14" depart="30.00" departLane="978867529_0" departPos="5.10" departSpeed="0.00" departDelay="0.35" arrival="129.00" arrivalLane="226276377#0_0" arrivalPos="135.52" arrivalSpeed="12.97" duration="99.00" routeLength="1369.55" waitingTime="0.00" waitingCount="0" stopTime="0.00" timeLoss="8.89" rerouteNo="0" devices="tripinfo_14" vType="DEFAULT_VEHTYPE" speedFactor="0.99" vaporized=""/>
    <tripinfo id="18" depart="39.00" departLane="978867529_0" departPos="5.10" departSpeed="0.00" departDelay="0.88" arrival="131.00" arrivalLane="226276377#0_0" arrivalPos="135.52" arrivalSpeed="16.31" duration="92.00" routeLength="1369.55" waitingTime="0.00" waitingCount="0" stopTime="0.00" timeLoss="17.17" rerouteNo="0" devices="tripinfo_18" vType="DEFAULT_VEHTYPE" speedFactor="1.21" vaporized=""/>
    <tripinfo id="19" depart="42.00" departLane="978867529_0" departPos="5.10" departSpeed="0.00" departDelay="1.76" arrival="147.00" arrivalLane="226276377#0_0" arrivalPos="135.52" arrivalSpeed="12.13" duration="105.00" routeLength="1369.55" waitingTime="0.00" waitingCount="0" stopTime="0.00" timeLoss="9.70" rerouteNo="0" devices="tripinfo_19" vType="DEFAULT_VEHTYPE" speedFactor="0.94" vaporized=""/>
    <tripinfo id="6" depart="13.00" departLane="-218680176#1_0" departPos="5.10" departSpeed="0.00" departDelay="0.29" arrival="153.00" arrivalLane="153964138#0_2" arrivalPos="337.99" arrivalSpeed="16.63" duration="140.00" routeLength="462.27" waitingTime="102.00" waitingCount="1" stopTime="0.00" timeLoss="111.90" rerouteNo="0" devices="tripinfo_6" vType="DEFAULT_VEHTYPE" speedFactor="1.07" vaporized=""/>
    <tripinfo id="40" depart="85.00" departLane="65746828#0_0" departPos="5.10" departSpeed="0.00" departDelay="0.29" arrival="154.00" arrivalLane="210831345#1_0" arrivalPos="264.29" arrivalSpeed="16.35" duration="69.00" routeLength="446.75" waitingTime="30.00" waitingCount="1" stopTime="0.00" timeLoss="41.05" rerouteNo="0" devices="tripinfo_40" vType="DEFAULT_VEHTYPE" speedFactor="1.18" vaporized=""/>
    <tripinfo id="2" depart="5.00" departLane="666135205#0_0" departPos="5.10" departSpeed="0.00" departDelay="0.76" arrival="189.00" arrivalLane="231177697#0_0" arrivalPos="74.44" arrivalSpeed="14.19" duration="184.00" routeLength="649.17" waitingTime="119.00" waitingCount="2" stopTime="0.00" timeLoss="136.78" rerouteNo="0" devices="tripinfo_2" vType="DEFAULT_VEHTYPE" speedFactor="1.02" vaporized=""/>
    <tripinfo id="61" depart="130.00" departLane="978867529_0" departPos="5.10" departSpeed="0.00" departDelay="0.82" arrival="192.00" arrivalLane="218680176#0_0" arrivalPos="98.94" arrivalSpeed="12.26" duration="62.00" routeLength="442.15" waitingTime="19.00" waitingCount="1" stopTime="0.00" timeLoss="29.60" rerouteNo="0" devices="tripinfo_61" vType="DEFAULT_VEHTYPE" speedFactor="0.91" vaporized=""/>
    <tripinfo id="12" depart="26.00" departLane="E8_0" departPos="5.10" departSpeed="0.00" departDelay="0.59" arrival="195.00" arrivalLane="210831347#0_1" arrivalPos="149.88" arrivalSpeed="11.31" duration="169.00" routeLength="1367.17" waitingTime="52.00" waitingCount="1" stopTime="0.00" timeLoss="64.25" rerouteNo="0" devices="tripinfo_12" vType="DEFAULT_VEHTYPE" speedFactor="0.91" vaporized=""/>
    <tripinfo id="16" depart="34.00" departLane="256961141#0_0" departPos="5.10" departSpeed="0.00" departDelay="0.12" arrival="196.00" arrivalLane="450554042#0_0" arrivalPos="622.66" arrivalSpeed="16.50" duration="162.00" routeLength="853.74" waitingTime="97.00" waitingCount="1" stopTime="0.00" timeLoss="109.26" rerouteNo="0" devices="tripinfo_16" vType="DEFAULT_VEHTYPE" speedFactor="1.03" vaporized=""/>
    <tripinfo id="54" depart="115.00" departLane="256961141#0_0" departPos="5.10" departSpeed="0.00" departDelay="0.65" arrival="198.00" arrivalLane="450554042#0_1" arrivalPos="622.66" arrivalSpeed="17.23" duration="83.00" routeLength="853.74" waitingTime="18.00" waitingCount="1" stopTime="0.00" timeLoss="30.07" rerouteNo="0" devices="tripinfo_54" vType="DEFAULT_VEHTYPE" speedFactor="1.04" vaporized=""/>
    <tripinfo id="36" depart="77.00" departLane="978867529_0" departPos="5.10" departSpeed="0.00" departDelay="0.76" arrival="202.00" arrivalLane="210831345#1_1" arrivalPos="264.29" arrivalSpeed="13.92" duration="125.00" routeLength="951.92" waitingTime="50.00" waitingCount="1" stopTime="0.00" timeLoss="62.72" rerouteNo="0" devices="tripinfo_36" vType="DEFAULT_VEHTYPE" speedFactor="1.06" vaporized=""/>
    <tripinfo id="42" depart="89.00" departLane="-661251539_0" departPos="5.10" departSpeed="0.00" departDelay="0.06" arrival="202.00" arrivalLane="153964138#0_1" arrivalPos="337.99" arrivalSpeed="16.69" duration="113.00" routeLength="1239.04" waitingTime="14.00" waitingCount="1" stopTime="0.00" timeLoss="28.09" rerouteNo="0" devices="tripinfo_42" vType="DEFAULT_VEHTYPE" speedFactor="1.01" vaporized=""/>
    <tripinfo id="1" depart="3.00" departLane="-231177697#2_0" departPos="5.10" departSpeed="0.00" departDelay="0.88" arrival="204.00" arrivalLane="210831345#1_1" arrivalPos="264.29" arrivalSpeed="13.80" duration="201.00" routeLength="696.92" waitingTime="137.00" waitingCount="2" stopTime="0.00" timeLoss="152.83" rerouteNo="0" devices="tripinfo_1" vType="DEFAULT_VEHTYPE" speedFactor="1.07" vaporized=""/>
    <tripinfo id="25" depart="53.00" departLane="-661251539_0" departPos="5.10" departSpeed="0.00" departDelay="0.06" arrival="206.00" arrivalLane="153964138#0_0" arrivalPos="337.99" arrivalSpeed="14.66" duration="153.00" routeLength="1239.04" waitingTime="41.00" waitingCount="2" stopTime="0.00" timeLoss="57.97" rerouteNo="0" devices="tripinfo_25" vType="DEFAULT_VEHTYPE" speedFactor="0.91" vaporized=""/>
    <tripinfo id="21" depart="45.00" departLane="-231177697#2_0" departPos="5.10" departSpeed="0.00" departDelay="0.53" arrival="210.00" arrivalLane="210831345#1_0" arrivalPos="264.29" arrivalSpeed="11.08" duration="165.00" routeLength="696.92" waitingTime="90.00" waitingCount="2" stopTime="0.00" timeLoss="106.82" rerouteNo="0" devices="tripinfo_21" vType="DEFAULT_VEHTYPE" speedFactor="0.87" vaporized=""/>
    <tripinfo id="39" depart="83.00" departLane="-231177697#2_0" departPos="5.10" departSpeed="0.00" departDelay="0.41" arrival="214.00" arrivalLane="210831345#1_1" arrivalPos="264.29" arrivalSpeed="13.40" duration="131.00" routeLength="696.92" waitingTime="51.00" waitingCount="2" stopTime="0.00" timeLoss="79.54" rerouteNo="0" devices="tripinfo_39" vType="DEFAULT_VEHTYPE" speedFactor="1.00" vaporized=""/>
    <tripinfo id="27" depart="58.00" departLane="65746828#0_0" departPos="5.10" departSpeed="0.00" departDelay="0.82" arrival="215.00" arrivalLane="226276377#0_0" arrivalPos="135.52" arrivalSpeed="14.75" duration="157.00" routeLength="841.69" waitingTime="88.00" waitingCount="2" stopTime="0.00" timeLoss="106.98" rerouteNo="0" devices="tripinfo_27" vType="DEFAULT_VEHTYPE" speedFactor="1.12" vaporized=""/>
    <tripinfo id="34" depart="72.00" departLane="-231177697#2_0" departPos="5.10" departSpeed="0.00" departDelay="0.00" arrival="216.00" arrivalLane="210831345#1_0" arrivalPos="264.29" arrivalSpeed="10.58" duration="144.00" routeLength="696.92" waitingTime="60.00" waitingCount="2" stopTime="0.00" timeLoss="78.07" rerouteNo="0" devices="tripinfo_34" vType="DEFAULT_VEHTYPE" speedFactor="0.78" vaporized=""/>
    <tripinfo id="52" depart="111.00" departLane="-231177697#2_0" departPos="5.10" departSpeed="0.00" departDelay="0.88" arrival="217.00" arrivalLane="226276377#0_0" arrivalPos="135.52" arrivalSpeed="15.95" duration="106.00" routeLength="1114.55" waitingTime="16.00" waitingCount="1" stopTime="0.00" timeLoss="40.91" rerouteNo="0" devices="tripinfo_52" vType="DEFAULT_VEHTYPE" speedFactor="1.16" vaporized=""/>
    <tripinfo id="58" depart="123.00" departLane="-231177697#2_0" departPos="5.10" departSpeed="0.00" departDelay="0.18" arrival="221.00" arrivalLane="226276377#0_0" arrivalPos="135.52" arrivalSpeed="12.86" duration="98.00" routeLength="1114.55" waitingTime="7.00" waitingCount="1" stopTime="0.00" timeLoss="23.15" rerouteNo="0" devices="tripinfo_58" vType="DEFAULT_VEHTYPE" speedFactor="1.01" vaporized=""/>
    <tripinfo id="50" depart="106.00" departLane="-218680176#1_0" departPos="5.10" departSpeed="0.00" departDelay="0.12" arrival="229.00" arrivalLane="231177697#0_0" arrivalPos="74.44" arrivalSpeed="15.59" duration="123.00" routeLength="205.97" waitingTime="93.00" waitingCount="1" stopTime="0.00" timeLoss="110.14" rerouteNo="0" devices="tripinfo_50" vType="DEFAULT_VEHTYPE" speedFactor="1.16" vaporized=""/>
    <tripinfo id="79" depart="168.00" departLane="-231177697#2_0" departPos="5.10" departSpeed="0.00" departDelay="0.71" arrival="229.00" arrivalLane="153964138#0_0" arrivalPos="337.99" arrivalSpeed="15.14" duration="61.00" routeLength="417.38" waitingTime="24.00" waitingCount="1" stopTime="0.00" timeLoss="33.22" rerouteNo="0" devices="tripinfo_79" vType="DEFAULT_VEHTYPE" speedFactor="0.96" vaporized=""/>
    <tripinfo id="68" depart="144.00" departLane="-218680176#1_0" departPos="5.10" departSpeed="0.00" departDelay="0.00" arrival="235.00" arrivalLane="231177697#0_0" arrivalPos="74.44" arrivalSpeed="14.63" duration="91.00" routeLength="205.97" waitingTime="60.00" waitingCount="1" stopTime="0.00" timeLoss="77.56" rerouteNo="0" devices="tripinfo_68" vType="DEFAULT_VEHTYPE" speedFactor="1.12" vaporized=""/>
    <tripinfo id="30" depart="64.00" departLane="E8_0" departPos="5.10" departSpeed="0.00" departDelay="0.47" arrival="244.00" arrivalLane="226276377#0_1" arrivalPos="135.52" arrivalSpeed="12.64" duration="180.00" routeLength="784.51" waitingTime="107.00" waitingCount="1" stopTime="0.00" timeLoss="118.58" rerouteNo="0" devices="tripinfo_30" vType="DEFAULT_VEHTYPE" speedFactor="0.93" vaporized=""/>
    <tripinfo id="41" depart="88.00" departLane="65746828#0_0" departPos="5.10" departSpeed="0.00" departDelay="1.18" arrival="245.00" arrivalLane="450554042#0_0" arrivalPos="622.66" arrivalSpeed="16.78" duration="157.00" routeLength="1340.72" waitingTime="56.00" waitingCount="2" stopTime="0.00" timeLoss="76.11" rerouteNo="0" devices="tripinfo_41" vType="DEFAULT_VEHTYPE" speedFactor="1.04" vaporized=""/>
    <tripinfo id="75" depart="159.00" departLane="E8_0" departPos="5.10" departSpeed="0.00" departDelay="0.18" arrival="246.00" arrivalLane="226276377#0_1" arrivalPos="135.52" arrivalSpeed="13.63" duration="87.00" routeLength="784.51" waitingTime="21.00" waitingCount="1" stopTime="0.00" timeLoss="33.01" rerouteNo="0" devices="tripinfo_75" vType="DEFAULT_VEHTYPE" speedFactor="1.07" vaporized=""/>
    <tripinfo id="46" depart="98.00" departLane="978867529_0" departPos="5.10" departSpeed="0.00" departDelay="0.59" arrival="247.00" arrivalLane="210831347#0_0" arrivalPos="149.88" arrivalSpeed="11.69" duration="149.00" routeLength="812.56" waitingTime="68.00" waitingCount="2" stopTime="0.00" timeLoss="84.01" rerouteNo="0" devices="tripinfo_46" vType="DEFAULT_VEHTYPE" speedFactor="0.86" vaporized=""/>
    <tripinfo id="85" depart="180.00" departLane="E8_0" departPos="5.10" departSpeed="0.00" departDelay="0.00" arrival="247.00" arrivalLane="226276377#0_1" arrivalPos="135.52" arrivalSpeed="14.74" duration="67.00" routeLength="784.51" waitingTime="4.00" waitingCount="1" stopTime="0.00" timeLoss="17.99" rerouteNo="0" devices="tripinfo_85" vType="DEFAULT_VEHTYPE" speedFactor="1.17" vaporized=""/>
    <tripinfo id="4" depart="9.00" departLane="-661251539_0" departPos="5.10" departSpeed="0.00" departDelay="0.53" arrival="249.00" arrivalLane="-256961141#1_1" arrivalPos="204.72" arrivalSpeed="11.80" duration="240.00" routeLength="872.91" waitingTime="161.00" waitingCount="1" stopTime="0.00" timeLoss="175.45" rerouteNo="0" devices="tripinfo_4" vType="DEFAULT_VEHTYPE" speedFactor="0.94" vaporized=""/>
    <tripinfo id="9" depart="20.00" departLane="978867529_0" departPos="5.10" departSpeed="0.00" departDelay="0.94" arrival="251.00" arrivalLane="-256961141#1_1" arrivalPos="204.72" arrivalSpeed="12.75" duration="231.00" routeLength="1459.36" waitingTime="117.00" waitingCount="1" stopTime="0.00" timeLoss="131.04" rerouteNo="0" devices="tripinfo_9" vType="DEFAULT_VEHTYPE" speedFactor="0.96" vaporized=""/>
    <tripinfo id="49" depart="105.00" departLane="E8_0" departPos="5.10" departSpeed="0.00" departDelay="1.24" arrival="251.00" arrivalLane="39907424_0" arrivalPos="316.44" arrivalSpeed="15.00" duration="146.00" routeLength="1303.68" waitingTime="48.00" waitingCount="1" stopTime="0.00" timeLoss="64.73" rerouteNo="0" devices="tripinfo_49" vType="DEFAULT_VEHTYPE" speedFactor="1.11" vaporized=""/>
    <tripinfo id="0" depart="0.00" departLane="65746828#0_0" departPos="5.10" departSpeed="0.00" departDelay="0.00" arrival="253.00" arrivalLane="-256961141#1_1" arrivalPos="204.72" arrivalSpeed="14.71" duration="253.00" routeLength="931.50" waitingTime="177.00" waitingCount="2" stopTime="0.00" timeLoss="197.67" rerouteNo="0" devices="tripinfo_0" vType="DEFAULT_VEHTYPE" speedFactor="1.13" vaporized=""/>
    <tripinfo id="26" depart="56.00" departLane="-231177697#2_0" departPos="5.10" departSpeed="0.00" departDelay="0.94" arrival="253.00" arrivalLane="450554042#0_0" arrivalPos="622.66" arrivalSpeed="14.29" duration="197.00" routeLength="1613.58" waitingTime="63.00" waitingCount="1" stopTime="0.00" timeLoss="77.97" rerouteNo="0" devices="tripinfo_26" vType="DEFAULT_VEHTYPE" speedFactor="0.87" vaporized=""/>
    <tripinfo id="74" depart="157.00" departLane="-226276377#1_0" departPos="5.10" departSpeed="0.00" departDelay="0.29" arrival="255.00" arrivalLane="210831345#1_0" arrivalPos="264.29" arrivalSpeed="14.11" duration="98.00" routeLength="977.93" waitingTime="20.00" waitingCount="1" stopTime="0.00" timeLoss="34.37" rerouteNo="0" devices="tripinfo_74" vType="DEFAULT_VEHTYPE" speedFactor="1.07" vaporized=""/>
    <tripinfo id="33" depart="70.00" departLane="-231177697#2_0" departPos="5.10" departSpeed="0.00" departDelay="0.12" arrival="256.00" arrivalLane="-256961141#1_1" arrivalPos="204.72" arrivalSpeed="11.96" duration="186.00" routeLength="1204.36" waitingTime="77.00" waitingCount="2" stopTime="0.00" timeLoss="97.80" rerouteNo="0" devices="tripinfo_33" vType="DEFAULT_VEHTYPE" speedFactor="0.92" vaporized=""/>
    <tripinfo id="57" depart="121.00" departLane="E8_0" departPos="5.10" departSpeed="0.00" departDelay="0.29" arrival="257.00" arrivalLane="39907424_0" arrivalPos="316.44" arrivalSpeed="13.53" duration="136.00" routeLength="1303.68" waitingTime="30.00" waitingCount="1" stopTime="0.00" timeLoss="44.11" rerouteNo="0" devices="tripinfo_57" vType="DEFAULT_VEHTYPE" speedFactor="0.99" vaporized=""/>
    <tripinfo id="20" depart="43.00" departLane="666135205#0_0" departPos="5.10" departSpeed="0.00" departDelay="0.65" arrival="258.00" arrivalLane="-256961141#1_1" arrivalPos="204.72" arrivalSpeed="14.42" duration="215.00" routeLength="1068.72" waitingTime="134.00" waitingCount="1" stopTime="0.00" timeLoss="149.28" rerouteNo="0" devices="tripinfo_20" vType="DEFAULT_VEHTYPE" speedFactor="1.10" vaporized=""/>
    <tripinfo id="77" depart="164.00" departLane="-226276377#1_0" departPos="5.10" departSpeed="0.00" departDelay="0.94" arrival="259.00" arrivalLane="210831345#1_0" arrivalPos="264.29" arrivalSpeed="13.63" duration="95.00" routeLength="977.93" waitingTime="11.00" waitingCount="1" stopTime="0.00" timeLoss="27.14" rerouteNo="0" devices="tripinfo_77" vType="DEFAULT_VEHTYPE" speedFactor="1.00" vaporized=""/>
    <tripinfo id="78" depart="166.00" departLane="-661251539_0" departPos="5.10" departSpeed="0.00" departDelay="0.82" arrival="268.00" arrivalLane="226276377#0_0" arrivalPos="135.52" arrivalSpeed="12.70" duration="102.00" routeLength="783.10" waitingTime="23.00" waitingCount="2" stopTime="0.00" timeLoss="42.19" rerouteNo="0" devices="tripinfo_78" vType="DEFAULT_VEHTYPE" speedFactor="0.92" vaporized=""/>
    <tripinfo id="29" depart="63.00" departLane="-226276377#1_0" departPos="5.10" departSpeed="0.00" departDelay="1.59" arrival="271.00" arrivalLane="210831347#0_1" arrivalPos="149.88" arrivalSpeed="12.06" duration="208.00" routeLength="888.52" waitingTime="122.00" waitingCount="2" stopTime="0.00" timeLoss="138.80" rerouteNo="0" devices="tripinfo_29" vType="DEFAULT_VEHTYPE" speedFactor="0.88" vaporized=""/>
    <tripinfo id="91" depart="193.00" departLane="E8_0" departPos="5.10" departSpeed="0.00" departDelay="0.29" arrival="271.00" arrivalLane="-256961141#1_0" arrivalPos="204.72" arrivalSpeed="13.61" duration="78.00" routeLength="832.89" waitingTime="6.00" waitingCount="1" stopTime="0.00" timeLoss="18.44" rerouteNo="0" devices="tripinfo_91" vType="DEFAULT_VEHTYPE" speedFactor="1.02" vaporized=""/>
    <tripinfo id="53" depart="113.00" departLane="-226276377#1_0" departPos="5.10" departSpeed="0.00" departDelay="0.76" arrival="273.00" arrivalLane="210831347#0_1" arrivalPos="149.88" arrivalSpeed="11.35" duration="160.00" routeLength="888.52" waitingTime="73.00" waitingCount="2" stopTime="0.00" timeLoss="92.18" rerouteNo="0" devices="tripinfo_53" vType="DEFAULT_VEHTYPE" speedFactor="0.90" vaporized=""/>
    <tripinfo id="71" depart="151.00" departLane="-231177697#2_0" departPos="5.10" departSpeed="0.00" departDelay="0.65" arrival="274.00" arrivalLane="39907424_0" arrivalPos="316.44" arrivalSpeed="13.41" duration="123.00" routeLength="961.15" waitingTime="38.00" waitingCount="1" stopTime="0.00" timeLoss="52.91" rerouteNo="0" devices="tripinfo_71" vType="DEFAULT_VEHTYPE" speedFactor="0.97" vaporized=""/>
    <tripinfo id="92" depart="195.00" departLane="-661251539_0" departPos="5.10" departSpeed="0.00" departDelay="0.18" arrival="276.00" arrivalLane="210831347#0_1" arrivalPos="149.88" arrivalSpeed="11.57" duration="81.00" routeLength="731.18" waitingTime="3.00" waitingCount="1" stopTime="0.00" timeLoss="17.05" rerouteNo="0" devices="tripinfo_92" vType="DEFAULT_VEHTYPE" speedFactor="0.85" vaporized=""/>
    <tripinfo id="64" depart="136.00" departLane="978867529_0" departPos="5.10" departSpeed="0.00" departDelay="0.47" arrival="279.00" arrivalLane="39907424_0" arrivalPos="316.44" arrivalSpeed="12.27" duration="143.00" routeLength="1216.15" waitingTime="29.00" waitingCount="2" stopTime="0.00" timeLoss="53.58" rerouteNo="0" devices="tripinfo_64" vType="DEFAULT_VEHTYPE" speedFactor="0.92" vaporized=""/>
    <tripinfo id="115" depart="244.00" departLane="-218680176#1_0" departPos="5.10" departSpeed="0.00" departDelay="0.47" arrival="279.00" arrivalLane="153964138#0_2" arrivalPos="337.99" arrivalSpeed="16.89" duration="35.00" routeLength="462.27" waitingTime="0.00" waitingCount="0" stopTime="0.00" timeLoss="5.60" rerouteNo="0" devices="tripinfo_115" vType="DEFAULT_VEHTYPE" speedFactor="1.03" vaporized=""/>
    <tripinfo id="55" depart="117.00" departLane="978867529_0" departPos="5.10" departSpeed="0.00" departDelay="0.53" arrival="280.00" arrivalLane="210831345#1_0" arrivalPos="264.29" arrivalSpeed="11.93" duration="163.00" routeLength="951.92" waitingTime="73.00" waitingCount="2" stopTime="0.00" timeLoss="91.48" rerouteNo="0" devices="tripinfo_55" vType="DEFAULT_VEHTYPE" speedFactor="0.92" vaporized=""/>
    <tripinfo id="22" depart="47.00" departLane="-218680176#1_0" departPos="5.10" departSpeed="0.00" departDelay="0.41" arrival="282.00" arrivalLane="210831345#1_1" arrivalPos="264.29" arrivalSpeed="13.49" duration="235.00" routeLength="699.94" waitingTime="163.00" waitingCount="2" stopTime="0.00" timeLoss="181.52" rerouteNo="0" devices="tripinfo_22" vType="DEFAULT_VEHTYPE" speedFactor="0.97" vaporized=""/>
    <tripinfo id="45" depart="97.00" departLane="-218680176#1_0" departPos="5.10" departSpeed="0.00" departDelay="1.71" arrival="284.00" arrivalLane="226276377#0_0" arrivalPos="135.52" arrivalSpeed="14.16" duration="187.00" routeLength="1117.57" waitingTime="100.00" waitingCount="1" stopTime="0.00" timeLoss="116.20" rerouteNo="0" devices="tripinfo_45" vType="DEFAULT_VEHTYPE" speedFactor="1.07" vaporized=""/>
    <tripinfo id="23" depart="50.00" departLane="-218680176#1_0" departPos="5.10" departSpeed="0.00" departDelay="1.29" arrival="286.00" arrivalLane="210831345#1_1" arrivalPos="264.29" arrivalSpeed="11.69" duration="236.00" routeLength="699.94" waitingTime="159.00" waitingCount="2" stopTime="0.00" timeLoss="176.18" rerouteNo="0" devices="tripinfo_23" vType="DEFAULT_VEHTYPE" speedFactor="0.87" vaporized=""/>
    <tripinfo id="62" depart="132.00" departLane="-218680176#1_0" departPos="5.10" departSpeed="0.00" departDelay="0.71" arrival="286.00" arrivalLane="210831345#1_0" arrivalPos="264.29" arrivalSpeed="13.71" duration="154.00" routeLength="699.94" waitingTime="76.00" waitingCount="2" stopTime="0.00" timeLoss="103.61" rerouteNo="0" devices="tripinfo_62" vType="DEFAULT_VEHTYPE" speedFactor="1.03" vaporized=""/>
    <tripinfo id="31" depart="66.00" departLane="65746828#0_0" departPos="5.10" departSpeed="0.00" departDelay="0.35" arrival="293.00" arrivalLane="231177697#0_0" arrivalPos="74.44" arrivalSpeed="8.57" duration="227.00" routeLength="558.79" waitingTime="153.00" waitingCount="2" stopTime="0.00" timeLoss="167.88" rerouteNo="0" devices="tripinfo_31" vType="DEFAULT_VEHTYPE" speedFactor="0.70" vaporized=""/>
    <tripinfo id="35" depart="75.00" departLane="-226276377#1_0" departPos="5.10" departSpeed="0.00" departDelay="0.88" arrival="294.00" arrivalLane="450554042#0_0" arrivalPos="622.66" arrivalSpeed="14.66" duration="219.00" routeLength="763.53" waitingTime="157.00" waitingCount="1" stopTime="0.00" timeLoss="167.10" rerouteNo="0" devices="tripinfo_35" vType="DEFAULT_VEHTYPE" speedFactor="0.94" vaporized=""/>
    <tripinfo id="28" depart="60.00" departLane="-226276377#1_0" departPos="5.10" departSpeed="0.00" departDelay="0.71" arrival="295.00" arrivalLane="231177697#0_0" arrivalPos="74.44" arrivalSpeed="12.20" duration="235.00" routeLength="1114.63" waitingTime="124.00" waitingCount="3" stopTime="0.00" timeLoss="147.96" rerouteNo="0" devices="tripinfo_28" vType="DEFAULT_VEHTYPE" speedFactor="0.90" vaporized=""/>
    <tripinfo id="47" depart="100.00" departLane="-218680176#1_0" departPos="5.10" departSpeed="0.00" departDelay="0.47" arrival="297.00" arrivalLane="210831347#0_0" arrivalPos="149.88" arrivalSpeed="9.73" duration="197.00" routeLength="560.58" waitingTime="123.00" waitingCount="2" stopTime="0.00" timeLoss="140.29" rerouteNo="0" devices="tripinfo_47" vType="DEFAULT_VEHTYPE" speedFactor="0.74" vaporized=""/>
    <tripinfo id="88" depart="187.00" departLane="-218680176#1_0" departPos="5.10" departSpeed="0.00" departDelay="0.65" arrival="299.00" arrivalLane="210831347#0_0" arrivalPos="149.88" arrivalSpeed="13.30" duration="112.00" routeLength="560.58" waitingTime="41.00" waitingCount="2" stopTime="0.00" timeLoss="69.82" rerouteNo="0" devices="tripinfo_88" vType="DEFAULT_VEHTYPE" speedFactor="1.00" vaporized=""/>
    <tripinfo id="84" depart="178.00" departLane="-226276377#1_0" departPos="5.10" departSpeed="0.00" departDelay="0.12" arrival="302.00" arrivalLane="153964138#0_2" arrivalPos="337.99" arrivalSpeed="17.81" duration="124.00" routeLength="1390.33" waitingTime="14.00" waitingCount="1" stopTime="0.00" timeLoss="38.38" rerouteNo="0" devices="tripinfo_84" vType="DEFAULT_VEHTYPE" speedFactor="1.08" vaporized=""/>
    <tripinfo id="59" depart="125.00" departLane="65746828#0_0" departPos="5.10" departSpeed="0.00" departDelay="0.06" arrival="303.00" arrivalLane="153964138#0_0" arrivalPos="337.99" arrivalSpeed="17.20" duration="178.00" routeLength="834.49" waitingTime="106.00" waitingCount="2" stopTime="0.00" timeLoss="124.80" rerouteNo="0" devices="tripinfo_59" vType="DEFAULT_VEHTYPE" speedFactor="1.06" vaporized=""/>
    <tripinfo id="72" depart="153.00" departLane="-661251539_0" departPos="5.10" departSpeed="0.00" departDelay="0.53" arrival="304.00" arrivalLane="153964138#0_0" arrivalPos="337.99" arrivalSpeed="15.34" duration="151.00" routeLength="1239.04" waitingTime="38.00" waitingCount="3" stopTime="0.00" timeLoss="61.86" rerouteNo="0" devices="tripinfo_72" vType="DEFAULT_VEHTYPE" speedFactor="0.96" vaporized=""/>
    <tripinfo id="123" depart="261.00" departLane="-231177697#2_0" departPos="5.10" departSpeed="0.00" departDelay="0.53" arrival="304.00" arrivalLane="210831347#0_0" arrivalPos="149.88" arrivalSpeed="15.33" duration="43.00" routeLength="557.56" waitingTime="0.00" waitingCount="0" stopTime="0.00" timeLoss="7.23" rerouteNo="0" devices="tripinfo_123" vType="DEFAULT_VEHTYPE" speedFactor="1.18" vaporized=""/>
    <tripinfo id="95" depart="202.00" departLane="-661251539_0" departPos="5.10" departSpeed="0.00" departDelay="0.82" arrival="306.00" arrivalLane="210831345#1_0" arrivalPos="264.29" arrivalSpeed="10.19" duration="104.00" routeLength="826.64" waitingTime="16.00" waitingCount="1" stopTime="0.00" timeLoss="28.09" rerouteNo="0" devices="tripinfo_95" vType="DEFAULT_VEHTYPE" speedFactor="0.80" vaporized=""/>
    <tripinfo id="10" depart="23.00" departLane="978867529_0" departPos="5.10" departSpeed="0.00" departDelay="1.82" arrival="313.00" arrivalLane="231177697#0_1" arrivalPos="74.44" arrivalSpeed="12.85" duration="290.00" routeLength="437.06" waitingTime="249.00" waitingCount="1" stopTime="0.00" timeLoss="260.18" rerouteNo="0" devices="tripinfo_10" vType="DEFAULT_VEHTYPE" speedFactor="0.96" vaporized=""/>
    <tripinfo id="15" depart="33.00" departLane="978867529_0" departPos="5.10" departSpeed="0.00" departDelay="1.24" arrival="316.00" arrivalLane="231177697#0_1" arrivalPos="74.44" arrivalSpeed="11.69" duration="283.00" routeLength="437.06" waitingTime="240.00" waitingCount="1" stopTime="0.00" timeLoss="249.28" rerouteNo="0" devices="tripinfo_15" vType="DEFAULT_VEHTYPE" speedFactor="0.85" vaporized=""/>
    <tripinfo id="17" depart="36.00" departLane="-661251539_0" departPos="5.10" departSpeed="0.00" departDelay="0.00" arrival="316.00" arrivalLane="218680176#0_1" arrivalPos="98.94" arrivalSpeed="12.91" duration="280.00" routeLength="1001.21" waitingTime="189.00" waitingCount="1" stopTime="0.00" timeLoss="202.75" rerouteNo="0" devices="tripinfo_17" vType="DEFAULT_VEHTYPE" speedFactor="0.96" vaporized=""/>
    <tripinfo id="104" depart="222.00" departLane="-661251539_0" departPos="5.10" departSpeed="0.00" departDelay="1.76" arrival="316.00" arrivalLane="450554042#0_0" arrivalPos="622.66" arrivalSpeed="16.11" duration="94.00" routeLength="1282.13" waitingTime="0.00" waitingCount="0" stopTime="0.00" timeLoss="9.82" rerouteNo="0" devices="tripinfo_104" vType="DEFAULT_VEHTYPE" speedFactor="0.98" vaporized=""/>
    <tripinfo id="32" depart="68.00" departLane="978867529_0" departPos="5.10" departSpeed="0.00" departDelay="0.24" arrival="318.00" arrivalLane="231177697#0_1" arrivalPos="74.44" arrivalSpeed="11.92" duration="250.00" routeLength="437.06" waitingTime="208.00" waitingCount="1" stopTime="0.00" timeLoss="217.04" rerouteNo="0" devices="tripinfo_32" vType="DEFAULT_VEHTYPE" speedFactor="0.88" vaporized=""/>
    <tripinfo id="51" depart="108.00" departLane="666135205#0_0" departPos="5.10" departSpeed="0.00" departDelay="0.00" arrival="318.00" arrivalLane="218680176#0_1" arrivalPos="98.94" arrivalSpeed="13.55" duration="210.00" routeLength="693.09" waitingTime="147.00" waitingCount="1" stopTime="0.00" timeLoss="159.71" rerouteNo="0" devices="tripinfo_51" vType="DEFAULT_VEHTYPE" speedFactor="1.03" vaporized=""/>