<?xml version="1.0" encoding="UTF-8"?>

<!-- generated on 2024-09-02 16:30:01 by Eclipse SUMO sumo Version 1.20.0
<configuration xmlns:xsi="http://www.w3.org/2001/XMLSchema-instance" xsi:noNamespaceSchemaLocation="http://sumo.dlr.de/xsd/sumoConfiguration.xsd">

    <input>
        <net-file value="c:\self\School\Master\Disertation\code\RESCO\resco_benchmark\environments/unirii/osm.net.xml.gz"/>
        <route-files value="c:\self\School\Master\Disertation\code\RESCO\resco_benchmark\environments/unirii/osm.passenger.trips.xml"/>
        <additional-files value="c:\self\School\Master\Disertation\code\RESCO\resco_benchmark\environments/unirii/osm.poly.xml.gz"/>
    </input>

    <output>
        <tripinfo-output value="C:\self\School\Master\Disertation\code\RESCO\results\MPLight-tr0-unirii-0-mplight-pressure\tripinfo_44.xml"/>
        <tripinfo-output.write-unfinished value="true"/>
    </output>

    <processing>
        <ignore-route-errors value="true"/>
        <time-to-teleport value="-1"/>
    </processing>

    <routing>
        <device.rerouting.adaptation-steps value="18"/>
        <device.rerouting.adaptation-interval value="10"/>
    </routing>

    <report>
        <verbose value="true"/>
        <no-warnings value="True"/>
        <duration-log.statistics value="true"/>
        <no-step-log value="True"/>
    </report>

    <traci_server>
        <remote-port value="64789"/>
    </traci_server>

    <random_number>
        <random value="true"/>
    </random_number>

    <gui_only>
        <gui-settings-file value="c:\self\School\Master\Disertation\code\RESCO\resco_benchmark\environments/unirii/osm.view.xml"/>
    </gui_only>

</configuration>
-->

<tripinfos xmlns:xsi="http://www.w3.org/2001/XMLSchema-instance" xsi:noNamespaceSchemaLocation="http://sumo.dlr.de/xsd/tripinfo_file.xsd">
    <tripinfo id="2" depart="5.00" departLane="666135205#0_0" departPos="5.10" departSpeed="0.00" departDelay="0.76" arrival="65.00" arrivalLane="231177697#0_0" arrivalPos="74.44" arrivalSpeed="12.97" duration="60.00" routeLength="649.17" waitingTime="0.00" waitingCount="0" stopTime="0.00" timeLoss="8.65" rerouteNo="0" devices="tripinfo_2" vType="DEFAULT_VEHTYPE" speedFactor="0.96" vaporized=""/>
    <tripinfo id="4" depart="9.00" departLane="-661251539_0" departPos="5.10" departSpeed="0.00" departDelay="0.53" arrival="73.00" arrivalLane="-256961141#1_1" arrivalPos="204.72" arrivalSpeed="14.61" duration="64.00" routeLength="872.91" waitingTime="0.00" waitingCount="0" stopTime="0.00" timeLoss="8.48" rerouteNo="0" devices="tripinfo_4" vType="DEFAULT_VEHTYPE" speedFactor="1.08" vaporized=""/>
    <tripinfo id="0" depart="0.00" departLane="65746828#0_0" departPos="5.10" departSpeed="0.00" departDelay="0.00" arrival="77.00" arrivalLane="-256961141#1_1" arrivalPos="204.72" arrivalSpeed="16.33" duration="77.00" routeLength="931.50" waitingTime="13.00" waitingCount="1" stopTime="0.00" timeLoss="24.23" rerouteNo="0" devices="tripinfo_0" vType="DEFAULT_VEHTYPE" speedFactor="1.20" vaporized=""/>
    <tripinfo id="3" depart="7.00" departLane="E8_0" departPos="5.10" departSpeed="0.00" departDelay="0.65" arrival="99.00" arrivalLane="-256961141#1_0" arrivalPos="204.72" arrivalSpeed="11.80" duration="92.00" routeLength="832.89" waitingTime="11.00" waitingCount="1" stopTime="0.00" timeLoss="21.84" rerouteNo="0" devices="tripinfo_3" vType="DEFAULT_VEHTYPE" speedFactor="0.87" vaporized=""/>
    <tripinfo id="6" depart="13.00" departLane="-218680176#1_0" departPos="5.10" departSpeed="0.00" departDelay="0.29" arrival="105.00" arrivalLane="153964138#0_2" arrivalPos="337.99" arrivalSpeed="15.47" duration="92.00" routeLength="462.27" waitingTime="52.00" waitingCount="1" stopTime="0.00" timeLoss="60.06" rerouteNo="0" devices="tripinfo_6" vType="DEFAULT_VEHTYPE" speedFactor="0.93" vaporized=""/>
    <tripinfo id="12" depart="26.00" departLane="E8_0" departPos="5.10" departSpeed="0.00" departDelay="0.59" arrival="143.00" arrivalLane="210831347#0_1" arrivalPos="149.88" arrivalSpeed="15.34" duration="117.00" routeLength="1367.17" waitingTime="14.00" waitingCount="2" stopTime="0.00" timeLoss="31.83" rerouteNo="0" devices="tripinfo_12" vType="DEFAULT_VEHTYPE" speedFactor="1.12" vaporized=""/>
    <tripinfo id="16" depart="34.00" departLane="256961141#0_0" departPos="5.10" departSpeed="0.00" departDelay="0.12" arrival="143.00" arrivalLane="450554042#0_1" arrivalPos="622.66" arrivalSpeed="17.87" duration="109.00" routeLength="853.74" waitingTime="49.00" waitingCount="1" stopTime="0.00" timeLoss="59.19" rerouteNo="0" devices="tripinfo_16" vType="DEFAULT_VEHTYPE" speedFactor="1.09" vaporized=""/>
    <tripinfo id="30" depart="64.00" departLane="E8_0" departPos="5.10" departSpeed="0.00" departDelay="0.47" arrival="143.00" arrivalLane="226276377#0_1" arrivalPos="135.52" arrivalSpeed="14.36" duration="79.00" routeLength="784.51" waitingTime="16.00" waitingCount="1" stopTime="0.00" timeLoss="26.58" rerouteNo="0" devices="tripinfo_30" vType="DEFAULT_VEHTYPE" speedFactor="1.10" vaporized=""/>
    <tripinfo id="13" depart="28.00" departLane="-218680176#1_0" departPos="5.10" departSpeed="0.00" departDelay="0.47" arrival="148.00" arrivalLane="-256961141#1_1" arrivalPos="204.72" arrivalSpeed="14.11" duration="120.00" routeLength="1207.38" waitingTime="24.00" waitingCount="2" stopTime="0.00" timeLoss="39.88" rerouteNo="0" devices="tripinfo_13" vType="DEFAULT_VEHTYPE" speedFactor="1.02" vaporized=""/>
    <tripinfo id="9" depart="20.00" departLane="978867529_0" departPos="5.10" departSpeed="0.00" departDelay="0.94" arrival="152.00" arrivalLane="-256961141#1_1" arrivalPos="204.72" arrivalSpeed="11.78" duration="132.00" routeLength="1459.36" waitingTime="10.00" waitingCount="2" stopTime="0.00" timeLoss="28.88" rerouteNo="0" devices="tripinfo_9" vType="DEFAULT_VEHTYPE" speedFactor="0.93" vaporized=""/>
    <tripinfo id="50" depart="106.00" departLane="-218680176#1_0" departPos="5.10" departSpeed="0.00" departDelay="0.12" arrival="152.00" arrivalLane="231177697#0_0" arrivalPos="74.44" arrivalSpeed="12.23" duration="46.00" routeLength="205.97" waitingTime="16.00" waitingCount="1" stopTime="0.00" timeLoss="29.55" rerouteNo="0" devices="tripinfo_50" vType="DEFAULT_VEHTYPE" speedFactor="0.93" vaporized=""/>
    <tripinfo id="1" depart="3.00" departLane="-231177697#2_0" departPos="5.10" departSpeed="0.00" departDelay="0.88" arrival="153.00" arrivalLane="210831345#1_1" arrivalPos="264.29" arrivalSpeed="13.28" duration="150.00" routeLength="696.92" waitingTime="85.00" waitingCount="2" stopTime="0.00" timeLoss="100.24" rerouteNo="0" devices="tripinfo_1" vType="DEFAULT_VEHTYPE" speedFactor="1.04" vaporized=""/>
    <tripinfo id="20" depart="43.00" departLane="666135205#0_0" departPos="5.10" departSpeed="0.00" departDelay="0.65" arrival="154.00" arrivalLane="-256961141#1_1" arrivalPos="204.72" arrivalSpeed="15.91" duration="111.00" routeLength="1068.72" waitingTime="39.00" waitingCount="1" stopTime="0.00" timeLoss="53.80" rerouteNo="0" devices="tripinfo_20" vType="DEFAULT_VEHTYPE" speedFactor="1.27" vaporized=""/>
    <tripinfo id="21" depart="45.00" departLane="-231177697#2_0" departPos="5.10" departSpeed="0.00" departDelay="0.53" arrival="154.00" arrivalLane="210831345#1_1" arrivalPos="264.29" arrivalSpeed="15.05" duration="109.00" routeLength="696.92" waitingTime="43.00" waitingCount="2" stopTime="0.00" timeLoss="63.60" rerouteNo="0" devices="tripinfo_21" vType="DEFAULT_VEHTYPE" speedFactor="1.13" vaporized=""/>
    <tripinfo id="39" depart="83.00" departLane="-231177697#2_0" departPos="5.10" departSpeed="0.00" departDelay="0.41" arrival="161.00" arrivalLane="210831345#1_0" arrivalPos="264.29" arrivalSpeed="14.01" duration="78.00" routeLength="696.92" waitingTime="7.00" waitingCount="1" stopTime="0.00" timeLoss="30.19" rerouteNo="0" devices="tripinfo_39" vType="DEFAULT_VEHTYPE" speedFactor="1.07" vaporized=""/>
    <tripinfo id="34" depart="72.00" departLane="-231177697#2_0" departPos="5.10" departSpeed="0.00" departDelay="0.00" arrival="163.00" arrivalLane="210831345#1_0" arrivalPos="264.29" arrivalSpeed="10.35" duration="91.00" routeLength="696.92" waitingTime="8.00" waitingCount="1" stopTime="0.00" timeLoss="27.07" rerouteNo="0" devices="tripinfo_34" vType="DEFAULT_VEHTYPE" speedFactor="0.80" vaporized=""/>
    <tripinfo id="31" depart="66.00" departLane="65746828#0_0" departPos="5.10" departSpeed="0.00" departDelay="0.35" arrival="164.00" arrivalLane="231177697#0_0" arrivalPos="74.44" arrivalSpeed="14.90" duration="98.00" routeLength="558.79" waitingTime="44.00" waitingCount="2" stopTime="0.00" timeLoss="60.89" rerouteNo="0" devices="tripinfo_31" vType="DEFAULT_VEHTYPE" speedFactor="1.13" vaporized=""/>
    <tripinfo id="61" depart="130.00" departLane="978867529_0" departPos="5.10" departSpeed="0.00" departDelay="0.82" arrival="167.00" arrivalLane="218680176#0_0" arrivalPos="98.94" arrivalSpeed="13.41" duration="37.00" routeLength="442.15" waitingTime="0.00" waitingCount="0" stopTime="0.00" timeLoss="7.11" rerouteNo="0" devices="tripinfo_61" vType="DEFAULT_VEHTYPE" speedFactor="0.99" vaporized=""/>
    <tripinfo id="14" depart="30.00" departLane="978867529_0" departPos="5.10" departSpeed="0.00" departDelay="0.35" arrival="168.00" arrivalLane="226276377#0_0" arrivalPos="135.52" arrivalSpeed="11.63" duration="138.00" routeLength="1369.55" waitingTime="28.00" waitingCount="1" stopTime="0.00" timeLoss="41.40" rerouteNo="0" devices="tripinfo_14" vType="DEFAULT_VEHTYPE" speedFactor="0.93" vaporized=""/>
    <tripinfo id="18" depart="39.00" departLane="978867529_0" departPos="5.10" departSpeed="0.00" departDelay="0.88" arrival="170.00" arrivalLane="226276377#0_0" arrivalPos="135.52" arrivalSpeed="14.26" duration="131.00" routeLength="1369.55" waitingTime="27.00" waitingCount="1" stopTime="0.00" timeLoss="47.16" rerouteNo="0" devices="tripinfo_18" vType="DEFAULT_VEHTYPE" speedFactor="1.07" vaporized=""/>
    <tripinfo id="19" depart="42.00" departLane="978867529_0" departPos="5.10" departSpeed="0.00" departDelay="1.76" arrival="172.00" arrivalLane="226276377#0_0" arrivalPos="135.52" arrivalSpeed="13.71" duration="130.00" routeLength="1369.55" waitingTime="27.00" waitingCount="1" stopTime="0.00" timeLoss="41.30" rerouteNo="0" devices="tripinfo_19" vType="DEFAULT_VEHTYPE" speedFactor="1.02" vaporized=""/>
    <tripinfo id="47" depart="100.00" departLane="-218680176#1_0" departPos="5.10" departSpeed="0.00" departDelay="0.47" arrival="179.00" arrivalLane="210831347#0_0" arrivalPos="149.88" arrivalSpeed="14.03" duration="79.00" routeLength="560.58" waitingTime="20.00" waitingCount="1" stopTime="0.00" timeLoss="39.93" rerouteNo="0" devices="tripinfo_47" vType="DEFAULT_VEHTYPE" speedFactor="1.07" vaporized=""/>
    <tripinfo id="11" depart="24.00" departLane="-661251539_0" departPos="5.10" departSpeed="0.00" departDelay="0.71" arrival="180.00" arrivalLane="153964138#0_0" arrivalPos="337.99" arrivalSpeed="14.23" duration="156.00" routeLength="1239.04" waitingTime="48.00" waitingCount="1" stopTime="0.00" timeLoss="62.27" rerouteNo="0" devices="tripinfo_11" vType="DEFAULT_VEHTYPE" speedFactor="0.91" vaporized=""/>
    <tripinfo id="46" depart="98.00" departLane="978867529_0" departPos="5.10" departSpeed="0.00" departDelay="0.59" arrival="194.00" arrivalLane="210831347#0_0" arrivalPos="149.88" arrivalSpeed="14.53" duration="96.00" routeLength="812.56" waitingTime="24.00" waitingCount="2" stopTime="0.00" timeLoss="44.86" rerouteNo="0" devices="tripinfo_46" vType="DEFAULT_VEHTYPE" speedFactor="1.11" vaporized=""/>
    <tripinfo id="35" depart="75.00" departLane="-226276377#1_0" departPos="5.10" departSpeed="0.00" departDelay="0.88" arrival="196.00" arrivalLane="450554042#0_0" arrivalPos="622.66" arrivalSpeed="14.41" duration="121.00" routeLength="763.53" waitingTime="55.00" waitingCount="1" stopTime="0.00" timeLoss="66.35" rerouteNo="0" devices="tripinfo_35" vType="DEFAULT_VEHTYPE" speedFactor="0.89" vaporized=""/>
    <tripinfo id="49" depart="105.00" departLane="E8_0" departPos="5.10" departSpeed="0.00" departDelay="1.24" arrival="201.00" arrivalLane="39907424_0" arrivalPos="316.44" arrivalSpeed="14.53" duration="96.00" routeLength="1303.68" waitingTime="0.00" waitingCount="0" stopTime="0.00" timeLoss="9.37" rerouteNo="0" devices="tripinfo_49" vType="DEFAULT_VEHTYPE" speedFactor="1.05" vaporized=""/>
    <tripinfo id="10" depart="23.00" departLane="978867529_0" departPos="5.10" departSpeed="0.00" departDelay="1.82" arrival="214.00" arrivalLane="231177697#0_1" arrivalPos="74.44" arrivalSpeed="12.83" duration="191.00" routeLength="437.06" waitingTime="151.00" waitingCount="1" stopTime="0.00" timeLoss="159.66" rerouteNo="0" devices="tripinfo_10" vType="DEFAULT_VEHTYPE" speedFactor="0.93" vaporized=""/>
    <tripinfo id="15" depart="33.00" departLane="978867529_0" departPos="5.10" departSpeed="0.00" departDelay="1.24" arrival="215.00" arrivalLane="231177697#0_1" arrivalPos="74.44" arrivalSpeed="13.96" duration="182.00" routeLength="437.06" waitingTime="144.00" waitingCount="1" stopTime="0.00" timeLoss="154.50" rerouteNo="0" devices="tripinfo_15" vType="DEFAULT_VEHTYPE" speedFactor="1.03" vaporized=""/>
    <tripinfo id="17" depart="36.00" departLane="-661251539_0" departPos="5.10" departSpeed="0.00" departDelay="0.00" arrival="217.00" arrivalLane="218680176#0_1" arrivalPos="98.94" arrivalSpeed="11.46" duration="181.00" routeLength="1001.21" waitingTime="81.00" waitingCount="1" stopTime="0.00" timeLoss="94.99" rerouteNo="0" devices="tripinfo_17" vType="DEFAULT_VEHTYPE" speedFactor="0.86" vaporized=""/>
    <tripinfo id="27" depart="58.00" departLane="65746828#0_0" departPos="5.10" departSpeed="0.00" departDelay="0.82" arrival="217.00" arrivalLane="226276377#0_0" arrivalPos="135.52" arrivalSpeed="12.83" duration="159.00" routeLength="841.69" waitingTime="86.00" waitingCount="2" stopTime="0.00" timeLoss="101.21" rerouteNo="0" devices="tripinfo_27" vType="DEFAULT_VEHTYPE" speedFactor="0.97" vaporized=""/>
    <tripinfo id="32" depart="68.00" departLane="978867529_0" departPos="5.10" departSpeed="0.00" departDelay="0.24" arrival="217.00" arrivalLane="231177697#0_1" arrivalPos="74.44" arrivalSpeed="13.25" duration="149.00" routeLength="437.06" waitingTime="109.00" waitingCount="1" stopTime="0.00" timeLoss="120.53" rerouteNo="0" devices="tripinfo_32" vType="DEFAULT_VEHTYPE" speedFactor="1.00" vaporized=""/>
    <tripinfo id="7" depart="15.00" departLane="65746828#0_0" departPos="5.10" departSpeed="0.00" departDelay="0.18" arrival="218.00" arrivalLane="218680176#0_1" arrivalPos="98.94" arrivalSpeed="13.94" duration="203.00" routeLength="602.71" waitingTime="144.00" waitingCount="2" stopTime="0.00" timeLoss="161.60" rerouteNo="0" devices="tripinfo_7" vType="DEFAULT_VEHTYPE" speedFactor="1.07" vaporized=""/>
    <tripinfo id="29" depart="63.00" departLane="-226276377#1_0" departPos="5.10" departSpeed="0.00" departDelay="1.59" arrival="219.00" arrivalLane="210831347#0_1" arrivalPos="149.88" arrivalSpeed="13.64" duration="156.00" routeLength="888.52" waitingTime="76.00" waitingCount="2" stopTime="0.00" timeLoss="95.38" rerouteNo="0" devices="tripinfo_29" vType="DEFAULT_VEHTYPE" speedFactor="1.01" vaporized=""/>
    <tripinfo id="52" depart="111.00" departLane="-231177697#2_0" departPos="5.10" departSpeed="0.00" departDelay="0.88" arrival="219.00" arrivalLane="226276377#0_0" arrivalPos="135.52" arrivalSpeed="15.04" duration="108.00" routeLength="1114.55" waitingTime="17.00" waitingCount="2" stopTime="0.00" timeLoss="41.52" rerouteNo="0" devices="tripinfo_52" vType="DEFAULT_VEHTYPE" speedFactor="1.14" vaporized=""/>
    <tripinfo id="51" depart="108.00" departLane="666135205#0_0" departPos="5.10" departSpeed="0.00" departDelay="0.00" arrival="220.00" arrivalLane="218680176#0_1" arrivalPos="98.94" arrivalSpeed="11.98" duration="112.00" routeLength="693.09" waitingTime="40.00" waitingCount="2" stopTime="0.00" timeLoss="57.64" rerouteNo="0" devices="tripinfo_51" vType="DEFAULT_VEHTYPE" speedFactor="0.94" vaporized=""/>
    <tripinfo id="5" depart="11.00" departLane="-226276377#1_0" departPos="5.10" departSpeed="0.00" departDelay="0.41" arrival="223.00" arrivalLane="218680176#0_1" arrivalPos="98.94" arrivalSpeed="11.39" duration="212.00" routeLength="1158.55" waitingTime="98.00" waitingCount="3" stopTime="0.00" timeLoss="119.76" rerouteNo="0" devices="tripinfo_5" vType="DEFAULT_VEHTYPE" speedFactor="0.87" vaporized=""/>
    <tripinfo id="45" depart="97.00" departLane="-218680176#1_0" departPos="5.10" departSpeed="0.00" departDelay="1.71" arrival="223.00" arrivalLane="226276377#0_0" arrivalPos="135.52" arrivalSpeed="12.37" duration="126.00" routeLength="1117.57" waitingTime="21.00" waitingCount="1" stopTime="0.00" timeLoss="42.25" rerouteNo="0" devices="tripinfo_45" vType="DEFAULT_VEHTYPE" speedFactor="0.91" vaporized=""/>
    <tripinfo id="57" depart="121.00" departLane="E8_0" departPos="5.10" departSpeed="0.00" departDelay="0.29" arrival="224.00" arrivalLane="39907424_0" arrivalPos="316.44" arrivalSpeed="13.47" duration="103.00" routeLength="1303.68" waitingTime="0.00" waitingCount="0" stopTime="0.00" timeLoss="11.31" rerouteNo="0" devices="tripinfo_57" vType="DEFAULT_VEHTYPE" speedFactor="0.99" vaporized=""/>
    <tripinfo id="22" depart="47.00" departLane="-218680176#1_0" departPos="5.10" departSpeed="0.00" departDelay="0.41" arrival="225.00" arrivalLane="210831345#1_1" arrivalPos="264.29" arrivalSpeed="15.48" duration="178.00" routeLength="699.94" waitingTime="116.00" waitingCount="2" stopTime="0.00" timeLoss="134.53" rerouteNo="0" devices="tripinfo_22" vType="DEFAULT_VEHTYPE" speedFactor="1.18" vaporized=""/>
    <tripinfo id="38" depart="81.00" departLane="E8_0" departPos="5.10" departSpeed="0.00" departDelay="0.53" arrival="225.00" arrivalLane="218680176#0_1" arrivalPos="98.94" arrivalSpeed="14.50" duration="144.00" routeLength="1637.20" waitingTime="22.00" waitingCount="1" stopTime="0.00" timeLoss="37.63" rerouteNo="0" devices="tripinfo_38" vType="DEFAULT_VEHTYPE" speedFactor="1.08" vaporized=""/>
    <tripinfo id="43" depart="92.00" departLane="E8_0" departPos="5.10" departSpeed="0.00" departDelay="0.94" arrival="227.00" arrivalLane="218680176#0_1" arrivalPos="98.94" arrivalSpeed="14.34" duration="135.00" routeLength="1637.20" waitingTime="9.00" waitingCount="1" stopTime="0.00" timeLoss="26.25" rerouteNo="0" devices="tripinfo_43" vType="DEFAULT_VEHTYPE" speedFactor="1.05" vaporized=""/>
    <tripinfo id="23" depart="50.00" departLane="-218680176#1_0" departPos="5.10" departSpeed="0.00" departDelay="1.29" arrival="229.00" arrivalLane="210831345#1_1" arrivalPos="264.29" arrivalSpeed="13.81" duration="179.00" routeLength="699.94" waitingTime="112.00" waitingCount="2" stopTime="0.00" timeLoss="130.57" rerouteNo="0" devices="tripinfo_23" vType="DEFAULT_VEHTYPE" speedFactor="1.08" vaporized=""/>
    <tripinfo id="62" depart="132.00" departLane="-218680176#1_0" departPos="5.10" departSpeed="0.00" departDelay="0.71" arrival="230.00" arrivalLane="210831345#1_1" arrivalPos="264.29" arrivalSpeed="16.16" duration="98.00" routeLength="699.94" waitingTime="37.00" waitingCount="1" stopTime="0.00" timeLoss="54.56" rerouteNo="0" devices="tripinfo_62" vType="DEFAULT_VEHTYPE" speedFactor="1.20" vaporized=""/>
    <tripinfo id="64" depart="136.00" departLane="978867529_0" departPos="5.10" departSpeed="0.00" departDelay="0.47" arrival="234.00" arrivalLane="39907424_0" arrivalPos="316.44" arrivalSpeed="11.85" duration="98.00" routeLength="1216.15" waitingTime="0.00" waitingCount="0" stopTime="0.00" timeLoss="9.26" rerouteNo="0" devices="tripinfo_64" vType="DEFAULT_VEHTYPE" speedFactor="0.93" vaporized=""/>
    <tripinfo id="68" depart="144.00" departLane="-218680176#1_0" departPos="5.10" departSpeed="0.00" departDelay="0.00" arrival="234.00" arrivalLane="231177697#0_0" arrivalPos="74.44" arrivalSpeed="13.90" duration="90.00" routeLength="205.97" waitingTime="66.00" waitingCount="1" stopTime="0.00" timeLoss="74.97" rerouteNo="0" devices="tripinfo_68" vType="DEFAULT_VEHTYPE" speedFactor="1.03" vaporized=""/>
    <tripinfo id="36" depart="77.00" departLane="978867529_0" departPos="5.10" departSpeed="0.00" departDelay="0.76" arrival="237.00" arrivalLane="210831345#1_0" arrivalPos="264.29" arrivalSpeed="12.10" duration="160.00" routeLength="951.92" waitingTime="67.00" waitingCount="2" stopTime="0.00" timeLoss="86.25" rerouteNo="0" devices="tripinfo_36" vType="DEFAULT_VEHTYPE" speedFactor="0.89" vaporized=""/>
    <tripinfo id="55" depart="117.00" departLane="978867529_0" departPos="5.10" departSpeed="0.00" departDelay="0.53" arrival="238.00" arrivalLane="210831345#1_1" arrivalPos="264.29" arrivalSpeed="12.43" duration="121.00" routeLength="951.92" waitingTime="29.00" waitingCount="2" stopTime="0.00" timeLoss="51.85" rerouteNo="0" devices="tripinfo_55" vType="DEFAULT_VEHTYPE" speedFactor="0.95" vaporized=""/>
    <tripinfo id="63" depart="135.00" departLane="-218680176#1_0" departPos="5.10" departSpeed="0.00" departDelay="1.59" arrival="239.00" arrivalLane="450554042#0_1" arrivalPos="622.66" arrivalSpeed="19.55" duration="104.00" routeLength="1616.60" waitingTime="0.00" waitingCount="0" stopTime="0.00" timeLoss="16.34" rerouteNo="0" devices="tripinfo_63" vType="DEFAULT_VEHTYPE" speedFactor="1.18" vaporized=""/>
    <tripinfo id="26" depart="56.00" departLane="-231177697#2_0" departPos="5.10" departSpeed="0.00" departDelay="0.94" arrival="246.00" arrivalLane="450554042#0_0" arrivalPos="622.66" arrivalSpeed="15.54" duration="190.00" routeLength="1613.58" waitingTime="64.00" waitingCount="3" stopTime="0.00" timeLoss="87.39" rerouteNo="0" devices="tripinfo_26" vType="DEFAULT_VEHTYPE" speedFactor="1.00" vaporized=""/>
    <tripinfo id="79" depart="168.00" departLane="-231177697#2_0" departPos="5.10" departSpeed="0.00" departDelay="0.71" arrival="247.00" arrivalLane="153964138#0_0" arrivalPos="337.99" arrivalSpeed="17.18" duration="79.00" routeLength="417.38" waitingTime="44.00" waitingCount="1" stopTime="0.00" timeLoss="53.41" rerouteNo="0" devices="tripinfo_79" vType="DEFAULT_VEHTYPE" speedFactor="1.05" vaporized=""/>
    <tripinfo id="40" depart="85.00" departLane="65746828#0_0" departPos="5.10" departSpeed="0.00" departDelay="0.29" arrival="249.00" arrivalLane="210831345#1_0" arrivalPos="264.29" arrivalSpeed="12.26" duration="164.00" routeLength="446.75" waitingTime="119.00" waitingCount="2" stopTime="0.00" timeLoss="129.50" rerouteNo="0" devices="tripinfo_40" vType="DEFAULT_VEHTYPE" speedFactor="0.94" vaporized=""/>
    <tripinfo id="71" depart="151.00" departLane="-231177697#2_0" departPos="5.10" departSpeed="0.00" departDelay="0.65" arrival="272.00" arrivalLane="39907424_0" arrivalPos="316.44" arrivalSpeed="13.48" duration="121.00" routeLength="961.15" waitingTime="33.00" waitingCount="2" stopTime="0.00" timeLoss="54.80" rerouteNo="0" devices="tripinfo_71" vType="DEFAULT_VEHTYPE" speedFactor="1.02" vaporized=""/>
    <tripinfo id="54" depart="115.00" departLane="256961141#0_0" departPos="5.10" departSpeed="0.00" departDelay="0.65" arrival="279.00" arrivalLane="450554042#0_0" arrivalPos="622.66" arrivalSpeed="13.78" duration="164.00" routeLength="853.74" waitingTime="90.00" waitingCount="1" stopTime="0.00" timeLoss="100.09" rerouteNo="0" devices="tripinfo_54" vType="DEFAULT_VEHTYPE" speedFactor="0.86" vaporized=""/>
    <tripinfo id="115" depart="244.00" departLane="-218680176#1_0" departPos="5.10" departSpeed="0.00" departDelay="0.47" arrival="279.00" arrivalLane="153964138#0_2" arrivalPos="337.99" arrivalSpeed="16.51" duration="35.00" routeLength="462.27" waitingTime="0.00" waitingCount="0" stopTime="0.00" timeLoss="5.42" rerouteNo="0" devices="tripinfo_115" vType="DEFAULT_VEHTYPE" speedFactor="1.01" vaporized=""/>
    <tripinfo id="28" depart="60.00" departLane="-226276377#1_0" departPos="5.10" departSpeed="0.00" departDelay="0.71" arrival="289.00" arrivalLane="231177697#0_0" arrivalPos="74.44" arrivalSpeed="13.12" duration="229.00" routeLength="1114.63" waitingTime="125.00" waitingCount="3" stopTime="0.00" timeLoss="152.24" rerouteNo="0" devices="tripinfo_28" vType="DEFAULT_VEHTYPE" speedFactor="1.02" vaporized=""/>
    <tripinfo id="73" depart="155.00" departLane="256961141#0_0" departPos="5.10" departSpeed="0.00" departDelay="0.41" arrival="292.00" arrivalLane="231177697#0_0" arrivalPos="74.44" arrivalSpeed="14.00" duration="137.00" routeLength="1163.55" waitingTime="33.00" waitingCount="3" stopTime="0.00" timeLoss="60.09" rerouteNo="0" devices="tripinfo_73" vType="DEFAULT_VEHTYPE" speedFactor="1.07" vaporized=""/>
    <tripinfo id="88" depart="187.00" departLane="-218680176#1_0" departPos="5.10" departSpeed="0.00" departDelay="0.65" arrival="294.00" arrivalLane="210831347#0_0" arrivalPos="149.88" arrivalSpeed="12.46" duration="107.00" routeLength="560.58" waitingTime="43.00" waitingCount="2" stopTime="0.00" timeLoss="60.08" rerouteNo="0" devices="tripinfo_88" vType="DEFAULT_VEHTYPE" speedFactor="0.90" vaporized=""/>
    <tripinfo id="90" depart="191.00" departLane="666135205#0_0" departPos="5.10" departSpeed="0.00" departDelay="0.41" arrival="295.00" arrivalLane="231177697#0_0" arrivalPos="74.44" arrivalSpeed="13.25" duration="104.00" routeLength="649.17" waitingTime="31.00" waitingCount="2" stopTime="0.00" timeLoss="55.16" rerouteNo="0" devices="tripinfo_90" vType="DEFAULT_VEHTYPE" speedFactor="1.01" vaporized=""/>
    <tripinfo id="74" depart="157.00" departLane="-226276377#1_0" departPos="5.10" departSpeed="0.00" departDelay="0.29" arrival="302.00" arrivalLane="210831345#1_1" arrivalPos="264.29" arrivalSpeed="14.16" duration="145.00" routeLength="977.93" waitingTime="66.00" waitingCount="2" stopTime="0.00" timeLoss="83.77" rerouteNo="0" devices="tripinfo_74" vType="DEFAULT_VEHTYPE" speedFactor="1.11" vaporized=""/>
    <tripinfo id="42" depart="89.00" departLane="-661251539_0" departPos="5.10" departSpeed="0.00" departDelay="0.06" arrival="303.00" arrivalLane="153964138#0_0" arrivalPos="337.99" arrivalSpeed="16.40" duration="214.00" routeLength="1239.04" waitingTime="112.00" waitingCount="2" stopTime="0.00" timeLoss="129.21" rerouteNo="0" devices="tripinfo_42" vType="DEFAULT_VEHTYPE" speedFactor="1.01" vaporized=""/>
    <tripinfo id="95" depart="202.00" departLane="-661251539_0" departPos="5.10" departSpeed="0.00" departDelay="0.82" arrival="303.00" arrivalLane="210831345#1_0" arrivalPos="264.29" arrivalSpeed="12.67" duration="101.00" routeLength="826.64" waitingTime="24.00" waitingCount="1" stopTime="0.00" timeLoss="34.77" rerouteNo="0" devices="tripinfo_95" vType="DEFAULT_VEHTYPE" speedFactor="0.92" vaporized=""/>
    <tripinfo id="56" depart="119.00" departLane="256961141#0_0" departPos="5.10" departSpeed="0.00" departDelay="0.41" arrival="304.00" arrivalLane="153964138#0_2" arrivalPos="337.99" arrivalSpeed="16.02" duration="185.00" routeLength="1439.25" waitingTime="68.00" waitingCount="2" stopTime="0.00" timeLoss="87.45" rerouteNo="0" devices="tripinfo_56" vType="DEFAULT_VEHTYPE" speedFactor="0.98" vaporized=""/>
    <tripinfo id="72" depart="153.00" departLane="-661251539_0" departPos="5.10" departSpeed="0.00" departDelay="0.53" arrival="304.00" arrivalLane="153964138#0_1" arrivalPos="337.99" arrivalSpeed="17.44" duration="151.00" routeLength="1239.04" waitingTime="45.00" waitingCount="2" stopTime="0.00" timeLoss="71.85" rerouteNo="0" devices="tripinfo_72" vType="DEFAULT_VEHTYPE" speedFactor="1.09" vaporized=""/>
    <tripinfo id="77" depart="164.00" departLane="-226276377#1_0" departPos="5.10" departSpeed="0.00" departDelay="0.94" arrival="306.00" arrivalLane="210831345#1_0" arrivalPos="264.29" arrivalSpeed="13.37" duration="142.00" routeLength="977.93" waitingTime="55.00" waitingCount="2" stopTime="0.00" timeLoss="76.07" rerouteNo="0" devices="tripinfo_77" vType="DEFAULT_VEHTYPE" speedFactor="1.03" vaporized=""/>
    <tripinfo id="25" depart="53.00" departLane="-661251539_0" departPos="5.10" departSpeed="0.00" departDelay="0.06" arrival="307.00" arrivalLane="153964138#0_0" arrivalPos="337.99" arrivalSpeed="13.39" duration="254.00" routeLength="1239.04" waitingTime="131.00" waitingCount="3" stopTime="0.00" timeLoss="153.24" rerouteNo="0" devices="tripinfo_25" vType="DEFAULT_VEHTYPE" speedFactor="0.85" vaporized=""/>
    <tripinfo id="69" depart="147.00" departLane="666135205#0_0" departPos="5.10" departSpeed="0.00" departDelay="0.88" arrival="307.00" arrivalLane="153964138#0_2" arrivalPos="337.99" arrivalSpeed="15.45" duration="160.00" routeLength="924.87" waitingTime="75.00" waitingCount="2" stopTime="0.00" timeLoss="93.18" rerouteNo="0" devices="tripinfo_69" vType="DEFAULT_VEHTYPE" speedFactor="0.95" vaporized=""/>
    <tripinfo id="109" depart="231.00" departLane="-226276377#1_0" departPos="5.10" departSpeed="0.00" departDelay="0.18" arrival="309.00" arrivalLane="210831345#1_0" arrivalPos="264.29" arrivalSpeed="13.91" duration="78.00" routeLength="977.93" waitingTime="0.00" waitingCount="0" stopTime="0.00" timeLoss="11.62" rerouteNo="0" devices="tripinfo_109" vType="DEFAULT_VEHTYPE" speedFactor="1.03" vaporized=""/>
    <tripinfo id="123" depart="261.00" departLane="-231177697#2_0" departPos="5.10" departSpeed="0.00" departDelay="0.53" arrival="315.00" arrivalLane="210831347#0_0" arrivalPos="149.88" arrivalSpeed="12.31" duration="54.00" routeLength="557.56" waitingTime="0.00" waitingCount="0" stopTime="0.00" timeLoss="7.32" rerouteNo="0" devices="tripinfo_123" vType="DEFAULT_VEHTYPE" speedFactor="0.90" vaporized=""/>
    <tripinfo id="78" depart="166.00" departLane="-661251539_0" departPos="5.10" departSpeed="0.00" departDelay="0.82" arrival="320.00" arrivalLane="226276377#0_0" arrivalPos="135.52" arrivalSpeed="12.98" duration="154.00" routeLength="783.10" waitingTime="76.00" waitingCount="2" stopTime="0.00" timeLoss="96.37" rerouteNo="0" devices="tripinfo_78" vType="DEFAULT_VEHTYPE" speedFactor="0.95" vaporized=""/>