<?xml version="1.0" encoding="UTF-8"?>

<!-- generated on 2024-09-02 16:35:33 by Eclipse SUMO sumo Version 1.20.0
<configuration xmlns:xsi="http://www.w3.org/2001/XMLSchema-instance" xsi:noNamespaceSchemaLocation="http://sumo.dlr.de/xsd/sumoConfiguration.xsd">

    <input>
        <net-file value="c:\self\School\Master\Disertation\code\RESCO\resco_benchmark\environments/unirii/osm.net.xml.gz"/>
        <route-files value="c:\self\School\Master\Disertation\code\RESCO\resco_benchmark\environments/unirii/osm.passenger.trips.xml"/>
        <additional-files value="c:\self\School\Master\Disertation\code\RESCO\resco_benchmark\environments/unirii/osm.poly.xml.gz"/>
    </input>

    <output>
        <tripinfo-output value="C:\self\School\Master\Disertation\code\RESCO\results\MPLight-tr0-unirii-0-mplight-pressure\tripinfo_83.xml"/>
        <tripinfo-output.write-unfinished value="true"/>
    </output>

    <processing>
        <ignore-route-errors value="true"/>
        <time-to-teleport value="-1"/>
    </processing>

    <routing>
        <device.rerouting.adaptation-steps value="18"/>
        <device.rerouting.adaptation-interval value="10"/>
    </routing>

    <report>
        <verbose value="true"/>
        <no-warnings value="True"/>
        <duration-log.statistics value="true"/>
        <no-step-log value="True"/>
    </report>

    <traci_server>
        <remote-port value="65013"/>
    </traci_server>

    <random_number>
        <random value="true"/>
    </random_number>

    <gui_only>
        <gui-settings-file value="c:\self\School\Master\Disertation\code\RESCO\resco_benchmark\environments/unirii/osm.view.xml"/>
    </gui_only>

</configuration>
-->

<tripinfos xmlns:xsi="http://www.w3.org/2001/XMLSchema-instance" xsi:noNamespaceSchemaLocation="http://sumo.dlr.de/xsd/tripinfo_file.xsd">
    <tripinfo id="3" depart="7.00" departLane="E8_0" departPos="5.10" departSpeed="0.00" departDelay="0.65" arrival="78.00" arrivalLane="-256961141#1_0" arrivalPos="204.72" arrivalSpeed="12.84" duration="71.00" routeLength="832.89" waitingTime="0.00" waitingCount="0" stopTime="0.00" timeLoss="7.28" rerouteNo="0" devices="tripinfo_3" vType="DEFAULT_VEHTYPE" speedFactor="0.95" vaporized=""/>
    <tripinfo id="6" depart="13.00" departLane="-218680176#1_0" departPos="5.10" departSpeed="0.00" departDelay="0.29" arrival="109.00" arrivalLane="153964138#0_1" arrivalPos="337.99" arrivalSpeed="13.28" duration="96.00" routeLength="462.27" waitingTime="51.00" waitingCount="1" stopTime="0.00" timeLoss="59.21" rerouteNo="0" devices="tripinfo_6" vType="DEFAULT_VEHTYPE" speedFactor="0.80" vaporized=""/>
    <tripinfo id="10" depart="23.00" departLane="978867529_0" departPos="5.10" departSpeed="0.00" departDelay="1.82" arrival="114.00" arrivalLane="231177697#0_1" arrivalPos="74.44" arrivalSpeed="12.48" duration="91.00" routeLength="437.06" waitingTime="51.00" waitingCount="1" stopTime="0.00" timeLoss="61.38" rerouteNo="0" devices="tripinfo_10" vType="DEFAULT_VEHTYPE" speedFactor="0.98" vaporized=""/>
    <tripinfo id="17" depart="36.00" departLane="-661251539_0" departPos="5.10" departSpeed="0.00" departDelay="0.00" arrival="114.00" arrivalLane="218680176#0_1" arrivalPos="98.94" arrivalSpeed="15.79" duration="78.00" routeLength="1001.21" waitingTime="0.00" waitingCount="0" stopTime="0.00" timeLoss="13.82" rerouteNo="0" devices="tripinfo_17" vType="DEFAULT_VEHTYPE" speedFactor="1.14" vaporized=""/>
    <tripinfo id="15" depart="33.00" departLane="978867529_0" departPos="5.10" departSpeed="0.00" departDelay="1.24" arrival="115.00" arrivalLane="231177697#0_1" arrivalPos="74.44" arrivalSpeed="14.63" duration="82.00" routeLength="437.06" waitingTime="44.00" waitingCount="1" stopTime="0.00" timeLoss="54.95" rerouteNo="0" devices="tripinfo_15" vType="DEFAULT_VEHTYPE" speedFactor="1.06" vaporized=""/>
    <tripinfo id="32" depart="68.00" departLane="978867529_0" departPos="5.10" departSpeed="0.00" departDelay="0.24" arrival="117.00" arrivalLane="231177697#0_1" arrivalPos="74.44" arrivalSpeed="16.78" duration="49.00" routeLength="437.06" waitingTime="10.00" waitingCount="1" stopTime="0.00" timeLoss="25.18" rerouteNo="0" devices="tripinfo_32" vType="DEFAULT_VEHTYPE" speedFactor="1.23" vaporized=""/>
    <tripinfo id="40" depart="85.00" departLane="65746828#0_0" departPos="5.10" departSpeed="0.00" departDelay="0.29" arrival="134.00" arrivalLane="210831345#1_0" arrivalPos="264.29" arrivalSpeed="12.81" duration="49.00" routeLength="446.75" waitingTime="4.00" waitingCount="1" stopTime="0.00" timeLoss="14.77" rerouteNo="0" devices="tripinfo_40" vType="DEFAULT_VEHTYPE" speedFactor="0.94" vaporized=""/>
    <tripinfo id="2" depart="5.00" departLane="666135205#0_0" departPos="5.10" departSpeed="0.00" departDelay="0.76" arrival="139.00" arrivalLane="231177697#0_0" arrivalPos="74.44" arrivalSpeed="14.90" duration="134.00" routeLength="649.17" waitingTime="75.00" waitingCount="2" stopTime="0.00" timeLoss="88.62" rerouteNo="0" devices="tripinfo_2" vType="DEFAULT_VEHTYPE" speedFactor="1.08" vaporized=""/>
    <tripinfo id="16" depart="34.00" departLane="256961141#0_0" departPos="5.10" departSpeed="0.00" departDelay="0.12" arrival="141.00" arrivalLane="450554042#0_1" arrivalPos="622.66" arrivalSpeed="18.33" duration="107.00" routeLength="853.74" waitingTime="50.00" waitingCount="1" stopTime="0.00" timeLoss="60.11" rerouteNo="0" devices="tripinfo_16" vType="DEFAULT_VEHTYPE" speedFactor="1.17" vaporized=""/>
    <tripinfo id="12" depart="26.00" departLane="E8_0" departPos="5.10" departSpeed="0.00" departDelay="0.59" arrival="145.00" arrivalLane="210831347#0_1" arrivalPos="149.88" arrivalSpeed="12.33" duration="119.00" routeLength="1367.17" waitingTime="2.00" waitingCount="1" stopTime="0.00" timeLoss="15.61" rerouteNo="0" devices="tripinfo_12" vType="DEFAULT_VEHTYPE" speedFactor="0.92" vaporized=""/>
    <tripinfo id="1" depart="3.00" departLane="-231177697#2_0" departPos="5.10" departSpeed="0.00" departDelay="0.88" arrival="151.00" arrivalLane="210831345#1_1" arrivalPos="264.29" arrivalSpeed="14.16" duration="148.00" routeLength="696.92" waitingTime="88.00" waitingCount="2" stopTime="0.00" timeLoss="101.36" rerouteNo="0" devices="tripinfo_1" vType="DEFAULT_VEHTYPE" speedFactor="1.11" vaporized=""/>
    <tripinfo id="14" depart="30.00" departLane="978867529_0" departPos="5.10" departSpeed="0.00" departDelay="0.35" arrival="151.00" arrivalLane="226276377#0_0" arrivalPos="135.52" arrivalSpeed="10.53" duration="121.00" routeLength="1369.55" waitingTime="0.00" waitingCount="0" stopTime="0.00" timeLoss="9.52" rerouteNo="0" devices="tripinfo_14" vType="DEFAULT_VEHTYPE" speedFactor="0.80" vaporized=""/>
    <tripinfo id="25" depart="53.00" departLane="-661251539_0" departPos="5.10" departSpeed="0.00" departDelay="0.06" arrival="152.00" arrivalLane="153964138#0_0" arrivalPos="337.99" arrivalSpeed="17.19" duration="99.00" routeLength="1239.04" waitingTime="4.00" waitingCount="1" stopTime="0.00" timeLoss="19.96" rerouteNo="0" devices="tripinfo_25" vType="DEFAULT_VEHTYPE" speedFactor="1.08" vaporized=""/>
    <tripinfo id="19" depart="42.00" departLane="978867529_0" departPos="5.10" departSpeed="0.00" departDelay="1.76" arrival="153.00" arrivalLane="226276377#0_0" arrivalPos="135.52" arrivalSpeed="11.94" duration="111.00" routeLength="1369.55" waitingTime="0.00" waitingCount="0" stopTime="0.00" timeLoss="14.16" rerouteNo="0" devices="tripinfo_19" vType="DEFAULT_VEHTYPE" speedFactor="0.93" vaporized=""/>
    <tripinfo id="21" depart="45.00" departLane="-231177697#2_0" departPos="5.10" departSpeed="0.00" departDelay="0.53" arrival="156.00" arrivalLane="210831345#1_1" arrivalPos="264.29" arrivalSpeed="12.40" duration="111.00" routeLength="696.92" waitingTime="42.00" waitingCount="2" stopTime="0.00" timeLoss="56.93" rerouteNo="0" devices="tripinfo_21" vType="DEFAULT_VEHTYPE" speedFactor="0.96" vaporized=""/>
    <tripinfo id="11" depart="24.00" departLane="-661251539_0" departPos="5.10" departSpeed="0.00" departDelay="0.71" arrival="157.00" arrivalLane="153964138#0_0" arrivalPos="337.99" arrivalSpeed="13.07" duration="133.00" routeLength="1239.04" waitingTime="17.00" waitingCount="1" stopTime="0.00" timeLoss="31.34" rerouteNo="0" devices="tripinfo_11" vType="DEFAULT_VEHTYPE" speedFactor="0.84" vaporized=""/>
    <tripinfo id="18" depart="39.00" departLane="978867529_0" departPos="5.10" departSpeed="0.00" departDelay="0.88" arrival="157.00" arrivalLane="226276377#0_0" arrivalPos="135.52" arrivalSpeed="10.81" duration="118.00" routeLength="1369.55" waitingTime="0.00" waitingCount="0" stopTime="0.00" timeLoss="11.18" rerouteNo="0" devices="tripinfo_18" vType="DEFAULT_VEHTYPE" speedFactor="0.84" vaporized=""/>
    <tripinfo id="34" depart="72.00" departLane="-231177697#2_0" departPos="5.10" departSpeed="0.00" departDelay="0.00" arrival="157.00" arrivalLane="210831345#1_0" arrivalPos="264.29" arrivalSpeed="16.21" duration="85.00" routeLength="696.92" waitingTime="15.00" waitingCount="1" stopTime="0.00" timeLoss="40.90" rerouteNo="0" devices="tripinfo_34" vType="DEFAULT_VEHTYPE" speedFactor="1.17" vaporized=""/>
    <tripinfo id="27" depart="58.00" departLane="65746828#0_0" departPos="5.10" departSpeed="0.00" departDelay="0.82" arrival="163.00" arrivalLane="226276377#0_0" arrivalPos="135.52" arrivalSpeed="12.10" duration="105.00" routeLength="841.69" waitingTime="28.00" waitingCount="1" stopTime="0.00" timeLoss="41.38" rerouteNo="0" devices="tripinfo_27" vType="DEFAULT_VEHTYPE" speedFactor="0.88" vaporized=""/>
    <tripinfo id="39" depart="83.00" departLane="-231177697#2_0" departPos="5.10" departSpeed="0.00" departDelay="0.41" arrival="164.00" arrivalLane="210831345#1_0" arrivalPos="264.29" arrivalSpeed="10.73" duration="81.00" routeLength="696.92" waitingTime="8.00" waitingCount="1" stopTime="0.00" timeLoss="18.94" rerouteNo="0" devices="tripinfo_39" vType="DEFAULT_VEHTYPE" speedFactor="0.83" vaporized=""/>
    <tripinfo id="30" depart="64.00" departLane="E8_0" departPos="5.10" departSpeed="0.00" departDelay="0.47" arrival="167.00" arrivalLane="226276377#0_1" arrivalPos="135.52" arrivalSpeed="14.87" duration="103.00" routeLength="784.51" waitingTime="39.00" waitingCount="1" stopTime="0.00" timeLoss="49.98" rerouteNo="0" devices="tripinfo_30" vType="DEFAULT_VEHTYPE" speedFactor="1.08" vaporized=""/>
    <tripinfo id="46" depart="98.00" departLane="978867529_0" departPos="5.10" departSpeed="0.00" departDelay="0.59" arrival="172.00" arrivalLane="210831347#0_0" arrivalPos="149.88" arrivalSpeed="14.23" duration="74.00" routeLength="812.56" waitingTime="4.00" waitingCount="1" stopTime="0.00" timeLoss="22.40" rerouteNo="0" devices="tripinfo_46" vType="DEFAULT_VEHTYPE" speedFactor="1.09" vaporized=""/>
    <tripinfo id="4" depart="9.00" departLane="-661251539_0" departPos="5.10" departSpeed="0.00" departDelay="0.53" arrival="174.00" arrivalLane="-256961141#1_1" arrivalPos="204.72" arrivalSpeed="12.57" duration="165.00" routeLength="872.91" waitingTime="89.00" waitingCount="1" stopTime="0.00" timeLoss="100.75" rerouteNo="0" devices="tripinfo_4" vType="DEFAULT_VEHTYPE" speedFactor="0.95" vaporized=""/>
    <tripinfo id="50" depart="106.00" departLane="-218680176#1_0" departPos="5.10" departSpeed="0.00" departDelay="0.12" arrival="175.00" arrivalLane="231177697#0_0" arrivalPos="74.44" arrivalSpeed="14.87" duration="69.00" routeLength="205.97" waitingTime="35.00" waitingCount="2" stopTime="0.00" timeLoss="54.60" rerouteNo="0" devices="tripinfo_50" vType="DEFAULT_VEHTYPE" speedFactor="1.08" vaporized=""/>
    <tripinfo id="9" depart="20.00" departLane="978867529_0" departPos="5.10" departSpeed="0.00" departDelay="0.94" arrival="177.00" arrivalLane="-256961141#1_1" arrivalPos="204.72" arrivalSpeed="11.62" duration="157.00" routeLength="1459.36" waitingTime="40.00" waitingCount="1" stopTime="0.00" timeLoss="51.81" rerouteNo="0" devices="tripinfo_9" vType="DEFAULT_VEHTYPE" speedFactor="0.91" vaporized=""/>
    <tripinfo id="0" depart="0.00" departLane="65746828#0_0" departPos="5.10" departSpeed="0.00" departDelay="0.00" arrival="180.00" arrivalLane="-256961141#1_1" arrivalPos="204.72" arrivalSpeed="11.84" duration="180.00" routeLength="931.50" waitingTime="92.00" waitingCount="2" stopTime="0.00" timeLoss="108.44" rerouteNo="0" devices="tripinfo_0" vType="DEFAULT_VEHTYPE" speedFactor="0.86" vaporized=""/>
    <tripinfo id="68" depart="144.00" departLane="-218680176#1_0" departPos="5.10" departSpeed="0.00" departDelay="0.00" arrival="182.00" arrivalLane="231177697#0_0" arrivalPos="74.44" arrivalSpeed="16.31" duration="38.00" routeLength="205.97" waitingTime="10.00" waitingCount="1" stopTime="0.00" timeLoss="24.71" rerouteNo="0" devices="tripinfo_68" vType="DEFAULT_VEHTYPE" speedFactor="1.19" vaporized=""/>
    <tripinfo id="61" depart="130.00" departLane="978867529_0" departPos="5.10" departSpeed="0.00" departDelay="0.82" arrival="188.00" arrivalLane="218680176#0_0" arrivalPos="98.94" arrivalSpeed="13.64" duration="58.00" routeLength="442.15" waitingTime="21.00" waitingCount="1" stopTime="0.00" timeLoss="31.20" rerouteNo="0" devices="tripinfo_61" vType="DEFAULT_VEHTYPE" speedFactor="1.07" vaporized=""/>
    <tripinfo id="41" depart="88.00" departLane="65746828#0_0" departPos="5.10" departSpeed="0.00" departDelay="1.18" arrival="189.00" arrivalLane="450554042#0_0" arrivalPos="622.66" arrivalSpeed="15.38" duration="101.00" routeLength="1340.72" waitingTime="3.00" waitingCount="1" stopTime="0.00" timeLoss="16.84" rerouteNo="0" devices="tripinfo_41" vType="DEFAULT_VEHTYPE" speedFactor="1.00" vaporized=""/>
    <tripinfo id="28" depart="60.00" departLane="-226276377#1_0" departPos="5.10" departSpeed="0.00" departDelay="0.71" arrival="192.00" arrivalLane="231177697#0_0" arrivalPos="74.44" arrivalSpeed="12.65" duration="132.00" routeLength="1114.63" waitingTime="28.00" waitingCount="1" stopTime="0.00" timeLoss="47.19" rerouteNo="0" devices="tripinfo_28" vType="DEFAULT_VEHTYPE" speedFactor="0.92" vaporized=""/>
    <tripinfo id="42" depart="89.00" departLane="-661251539_0" departPos="5.10" departSpeed="0.00" departDelay="0.06" arrival="210.00" arrivalLane="153964138#0_0" arrivalPos="337.99" arrivalSpeed="14.66" duration="121.00" routeLength="1239.04" waitingTime="11.00" waitingCount="1" stopTime="0.00" timeLoss="25.69" rerouteNo="0" devices="tripinfo_42" vType="DEFAULT_VEHTYPE" speedFactor="0.90" vaporized=""/>
    <tripinfo id="35" depart="75.00" departLane="-226276377#1_0" departPos="5.10" departSpeed="0.00" departDelay="0.88" arrival="214.00" arrivalLane="450554042#0_0" arrivalPos="622.66" arrivalSpeed="16.29" duration="139.00" routeLength="763.53" waitingTime="83.00" waitingCount="1" stopTime="0.00" timeLoss="93.03" rerouteNo="0" devices="tripinfo_35" vType="DEFAULT_VEHTYPE" speedFactor="1.05" vaporized=""/>
    <tripinfo id="47" depart="100.00" departLane="-218680176#1_0" departPos="5.10" departSpeed="0.00" departDelay="0.47" arrival="217.00" arrivalLane="210831347#0_0" arrivalPos="149.88" arrivalSpeed="15.09" duration="117.00" routeLength="560.58" waitingTime="50.00" waitingCount="3" stopTime="0.00" timeLoss="80.21" rerouteNo="0" devices="tripinfo_47" vType="DEFAULT_VEHTYPE" speedFactor="1.15" vaporized=""/>
    <tripinfo id="51" depart="108.00" departLane="666135205#0_0" departPos="5.10" departSpeed="0.00" departDelay="0.00" arrival="217.00" arrivalLane="218680176#0_1" arrivalPos="98.94" arrivalSpeed="11.35" duration="109.00" routeLength="693.09" waitingTime="33.00" waitingCount="2" stopTime="0.00" timeLoss="47.76" rerouteNo="0" devices="tripinfo_51" vType="DEFAULT_VEHTYPE" speedFactor="0.84" vaporized=""/>
    <tripinfo id="5" depart="11.00" departLane="-226276377#1_0" departPos="5.10" departSpeed="0.00" departDelay="0.41" arrival="218.00" arrivalLane="218680176#0_1" arrivalPos="98.94" arrivalSpeed="13.09" duration="207.00" routeLength="1158.55" waitingTime="101.00" waitingCount="3" stopTime="0.00" timeLoss="122.73" rerouteNo="0" devices="tripinfo_5" vType="DEFAULT_VEHTYPE" speedFactor="0.96" vaporized=""/>
    <tripinfo id="38" depart="81.00" departLane="E8_0" departPos="5.10" departSpeed="0.00" departDelay="0.53" arrival="220.00" arrivalLane="218680176#0_1" arrivalPos="98.94" arrivalSpeed="14.15" duration="139.00" routeLength="1637.20" waitingTime="15.00" waitingCount="1" stopTime="0.00" timeLoss="33.69" rerouteNo="0" devices="tripinfo_38" vType="DEFAULT_VEHTYPE" speedFactor="1.09" vaporized=""/>
    <tripinfo id="7" depart="15.00" departLane="65746828#0_0" departPos="5.10" departSpeed="0.00" departDelay="0.18" arrival="223.00" arrivalLane="218680176#0_1" arrivalPos="98.94" arrivalSpeed="11.47" duration="208.00" routeLength="602.71" waitingTime="146.00" waitingCount="1" stopTime="0.00" timeLoss="156.45" rerouteNo="0" devices="tripinfo_7" vType="DEFAULT_VEHTYPE" speedFactor="0.87" vaporized=""/>
    <tripinfo id="49" depart="105.00" departLane="E8_0" departPos="5.10" departSpeed="0.00" departDelay="1.24" arrival="230.00" arrivalLane="39907424_0" arrivalPos="316.44" arrivalSpeed="13.35" duration="125.00" routeLength="1303.68" waitingTime="20.00" waitingCount="1" stopTime="0.00" timeLoss="34.32" rerouteNo="0" devices="tripinfo_49" vType="DEFAULT_VEHTYPE" speedFactor="1.00" vaporized=""/>
    <tripinfo id="31" depart="66.00" departLane="65746828#0_0" departPos="5.10" departSpeed="0.00" departDelay="0.35" arrival="237.00" arrivalLane="231177697#0_0" arrivalPos="74.44" arrivalSpeed="13.47" duration="171.00" routeLength="558.79" waitingTime="112.00" waitingCount="2" stopTime="0.00" timeLoss="130.45" rerouteNo="0" devices="tripinfo_31" vType="DEFAULT_VEHTYPE" speedFactor="1.03" vaporized=""/>
    <tripinfo id="75" depart="159.00" departLane="E8_0" departPos="5.10" departSpeed="0.00" departDelay="0.18" arrival="243.00" arrivalLane="226276377#0_1" arrivalPos="135.52" arrivalSpeed="13.75" duration="84.00" routeLength="784.51" waitingTime="16.00" waitingCount="1" stopTime="0.00" timeLoss="27.63" rerouteNo="0" devices="tripinfo_75" vType="DEFAULT_VEHTYPE" speedFactor="1.02" vaporized=""/>
    <tripinfo id="29" depart="63.00" departLane="-226276377#1_0" departPos="5.10" departSpeed="0.00" departDelay="1.59" arrival="244.00" arrivalLane="210831347#0_1" arrivalPos="149.88" arrivalSpeed="14.32" duration="181.00" routeLength="888.52" waitingTime="107.00" waitingCount="2" stopTime="0.00" timeLoss="123.59" rerouteNo="0" devices="tripinfo_29" vType="DEFAULT_VEHTYPE" speedFactor="1.08" vaporized=""/>
    <tripinfo id="26" depart="56.00" departLane="-231177697#2_0" departPos="5.10" departSpeed="0.00" departDelay="0.94" arrival="247.00" arrivalLane="450554042#0_0" arrivalPos="622.66" arrivalSpeed="13.45" duration="191.00" routeLength="1613.58" waitingTime="49.00" waitingCount="2" stopTime="0.00" timeLoss="68.89" rerouteNo="0" devices="tripinfo_26" vType="DEFAULT_VEHTYPE" speedFactor="0.85" vaporized=""/>
    <tripinfo id="79" depart="168.00" departLane="-231177697#2_0" departPos="5.10" departSpeed="0.00" departDelay="0.71" arrival="247.00" arrivalLane="153964138#0_0" arrivalPos="337.99" arrivalSpeed="17.35" duration="79.00" routeLength="417.38" waitingTime="44.00" waitingCount="1" stopTime="0.00" timeLoss="54.05" rerouteNo="0" devices="tripinfo_79" vType="DEFAULT_VEHTYPE" speedFactor="1.10" vaporized=""/>
    <tripinfo id="13" depart="28.00" departLane="-218680176#1_0" departPos="5.10" departSpeed="0.00" departDelay="0.47" arrival="250.00" arrivalLane="-256961141#1_1" arrivalPos="204.72" arrivalSpeed="11.99" duration="222.00" routeLength="1207.38" waitingTime="110.00" waitingCount="2" stopTime="0.00" timeLoss="129.33" rerouteNo="0" devices="tripinfo_13" vType="DEFAULT_VEHTYPE" speedFactor="0.88" vaporized=""/>
    <tripinfo id="85" depart="180.00" departLane="E8_0" departPos="5.10" departSpeed="0.00" departDelay="0.00" arrival="250.00" arrivalLane="226276377#0_1" arrivalPos="135.52" arrivalSpeed="11.71" duration="70.00" routeLength="784.51" waitingTime="0.00" waitingCount="0" stopTime="0.00" timeLoss="6.15" rerouteNo="0" devices="tripinfo_85" vType="DEFAULT_VEHTYPE" speedFactor="0.89" vaporized=""/>
    <tripinfo id="36" depart="77.00" departLane="978867529_0" departPos="5.10" departSpeed="0.00" departDelay="0.76" arrival="251.00" arrivalLane="210831345#1_1" arrivalPos="264.29" arrivalSpeed="14.44" duration="174.00" routeLength="951.92" waitingTime="96.00" waitingCount="2" stopTime="0.00" timeLoss="115.38" rerouteNo="0" devices="tripinfo_36" vType="DEFAULT_VEHTYPE" speedFactor="1.13" vaporized=""/>
    <tripinfo id="54" depart="115.00" departLane="256961141#0_0" departPos="5.10" departSpeed="0.00" departDelay="0.65" arrival="251.00" arrivalLane="450554042#0_0" arrivalPos="622.66" arrivalSpeed="14.46" duration="136.00" routeLength="853.74" waitingTime="65.00" waitingCount="1" stopTime="0.00" timeLoss="76.15" rerouteNo="0" devices="tripinfo_54" vType="DEFAULT_VEHTYPE" speedFactor="0.92" vaporized=""/>
    <tripinfo id="33" depart="70.00" departLane="-231177697#2_0" departPos="5.10" departSpeed="0.00" departDelay="0.12" arrival="252.00" arrivalLane="-256961141#1_1" arrivalPos="204.72" arrivalSpeed="15.07" duration="182.00" routeLength="1204.36" waitingTime="68.00" waitingCount="3" stopTime="0.00" timeLoss="106.89" rerouteNo="0" devices="tripinfo_33" vType="DEFAULT_VEHTYPE" speedFactor="1.09" vaporized=""/>
    <tripinfo id="20" depart="43.00" departLane="666135205#0_0" departPos="5.10" departSpeed="0.00" departDelay="0.65" arrival="254.00" arrivalLane="-256961141#1_1" arrivalPos="204.72" arrivalSpeed="13.83" duration="211.00" routeLength="1068.72" waitingTime="122.00" waitingCount="2" stopTime="0.00" timeLoss="143.64" rerouteNo="0" devices="tripinfo_20" vType="DEFAULT_VEHTYPE" speedFactor="1.07" vaporized=""/>
    <tripinfo id="59" depart="125.00" departLane="65746828#0_0" departPos="5.10" departSpeed="0.00" departDelay="0.06" arrival="254.00" arrivalLane="153964138#0_1" arrivalPos="337.99" arrivalSpeed="15.51" duration="129.00" routeLength="834.49" waitingTime="54.00" waitingCount="2" stopTime="0.00" timeLoss="71.67" rerouteNo="0" devices="tripinfo_59" vType="DEFAULT_VEHTYPE" speedFactor="0.99" vaporized=""/>
    <tripinfo id="64" depart="136.00" departLane="978867529_0" departPos="5.10" departSpeed="0.00" departDelay="0.47" arrival="254.00" arrivalLane="39907424_0" arrivalPos="316.44" arrivalSpeed="11.90" duration="118.00" routeLength="1216.15" waitingTime="13.00" waitingCount="1" stopTime="0.00" timeLoss="28.81" rerouteNo="0" devices="tripinfo_64" vType="DEFAULT_VEHTYPE" speedFactor="0.93" vaporized=""/>
    <tripinfo id="72" depart="153.00" departLane="-661251539_0" departPos="5.10" departSpeed="0.00" departDelay="0.53" arrival="254.00" arrivalLane="153964138#0_0" arrivalPos="337.99" arrivalSpeed="15.97" duration="101.00" routeLength="1239.04" waitingTime="0.00" waitingCount="0" stopTime="0.00" timeLoss="15.06" rerouteNo="0" devices="tripinfo_72" vType="DEFAULT_VEHTYPE" speedFactor="1.00" vaporized=""/>
    <tripinfo id="55" depart="117.00" departLane="978867529_0" departPos="5.10" departSpeed="0.00" departDelay="0.53" arrival="258.00" arrivalLane="210831345#1_0" arrivalPos="264.29" arrivalSpeed="11.72" duration="141.00" routeLength="951.92" waitingTime="54.00" waitingCount="1" stopTime="0.00" timeLoss="66.37" rerouteNo="0" devices="tripinfo_55" vType="DEFAULT_VEHTYPE" speedFactor="0.88" vaporized=""/>
    <tripinfo id="22" depart="47.00" departLane="-218680176#1_0" departPos="5.10" departSpeed="0.00" departDelay="0.41" arrival="259.00" arrivalLane="210831345#1_1" arrivalPos="264.29" arrivalSpeed="13.31" duration="212.00" routeLength="699.94" waitingTime="138.00" waitingCount="3" stopTime="0.00" timeLoss="160.16" rerouteNo="0" devices="tripinfo_22" vType="DEFAULT_VEHTYPE" speedFactor="1.00" vaporized=""/>
    <tripinfo id="53" depart="113.00" departLane="-226276377#1_0" departPos="5.10" departSpeed="0.00" departDelay="0.76" arrival="259.00" arrivalLane="210831347#0_1" arrivalPos="149.88" arrivalSpeed="13.24" duration="146.00" routeLength="888.52" waitingTime="73.00" waitingCount="1" stopTime="0.00" timeLoss="84.77" rerouteNo="0" devices="tripinfo_53" vType="DEFAULT_VEHTYPE" speedFactor="1.00" vaporized=""/>
    <tripinfo id="23" depart="50.00" departLane="-218680176#1_0" departPos="5.10" departSpeed="0.00" departDelay="1.29" arrival="260.00" arrivalLane="210831345#1_1" arrivalPos="264.29" arrivalSpeed="13.77" duration="210.00" routeLength="699.94" waitingTime="133.00" waitingCount="3" stopTime="0.00" timeLoss="158.92" rerouteNo="0" devices="tripinfo_23" vType="DEFAULT_VEHTYPE" speedFactor="1.01" vaporized=""/>
    <tripinfo id="56" depart="119.00" departLane="256961141#0_0" departPos="5.10" departSpeed="0.00" departDelay="0.41" arrival="262.00" arrivalLane="153964138#0_0" arrivalPos="337.99" arrivalSpeed="15.48" duration="143.00" routeLength="1439.25" waitingTime="33.00" waitingCount="1" stopTime="0.00" timeLoss="44.78" rerouteNo="0" devices="tripinfo_56" vType="DEFAULT_VEHTYPE" speedFactor="0.98" vaporized=""/>
    <tripinfo id="62" depart="132.00" departLane="-218680176#1_0" departPos="5.10" departSpeed="0.00" departDelay="0.71" arrival="262.00" arrivalLane="210831345#1_0" arrivalPos="264.29" arrivalSpeed="14.66" duration="130.00" routeLength="699.94" waitingTime="57.00" waitingCount="2" stopTime="0.00" timeLoss="82.83" rerouteNo="0" devices="tripinfo_62" vType="DEFAULT_VEHTYPE" speedFactor="1.10" vaporized=""/>
    <tripinfo id="57" depart="121.00" departLane="E8_0" departPos="5.10" departSpeed="0.00" departDelay="0.29" arrival="263.00" arrivalLane="39907424_0" arrivalPos="316.44" arrivalSpeed="9.46" duration="142.00" routeLength="1303.68" waitingTime="6.00" waitingCount="1" stopTime="0.00" timeLoss="21.14" rerouteNo="0" devices="tripinfo_57" vType="DEFAULT_VEHTYPE" speedFactor="0.75" vaporized=""/>
    <tripinfo id="44" depart="94.00" departLane="-218680176#1_0" departPos="5.10" departSpeed="0.00" departDelay="0.82" arrival="264.00" arrivalLane="-256961141#1_1" arrivalPos="204.72" arrivalSpeed="13.05" duration="170.00" routeLength="1207.38" waitingTime="58.00" waitingCount="3" stopTime="0.00" timeLoss="82.98" rerouteNo="0" devices="tripinfo_44" vType="DEFAULT_VEHTYPE" speedFactor="0.94" vaporized=""/>
    <tripinfo id="78" depart="166.00" departLane="-661251539_0" departPos="5.10" departSpeed="0.00" departDelay="0.82" arrival="268.00" arrivalLane="226276377#0_0" arrivalPos="135.52" arrivalSpeed="11.31" duration="102.00" routeLength="783.10" waitingTime="27.00" waitingCount="1" stopTime="0.00" timeLoss="40.08" rerouteNo="0" devices="tripinfo_78" vType="DEFAULT_VEHTYPE" speedFactor="0.88" vaporized=""/>
    <tripinfo id="45" depart="97.00" departLane="-218680176#1_0" departPos="5.10" departSpeed="0.00" departDelay="1.71" arrival="270.00" arrivalLane="226276377#0_0" arrivalPos="135.52" arrivalSpeed="12.57" duration="173.00" routeLength="1117.57" waitingTime="57.00" waitingCount="4" stopTime="0.00" timeLoss="90.11" rerouteNo="0" devices="tripinfo_45" vType="DEFAULT_VEHTYPE" speedFactor="0.92" vaporized=""/>
    <tripinfo id="91" depart="193.00" departLane="E8_0" departPos="5.10" departSpeed="0.00" departDelay="0.29" arrival="273.00" arrivalLane="-256961141#1_0" arrivalPos="204.72" arrivalSpeed="12.05" duration="80.00" routeLength="832.89" waitingTime="4.00" waitingCount="1" stopTime="0.00" timeLoss="14.51" rerouteNo="0" devices="tripinfo_91" vType="DEFAULT_VEHTYPE" speedFactor="0.93" vaporized=""/>
    <tripinfo id="74" depart="157.00" departLane="-226276377#1_0" departPos="5.10" departSpeed="0.00" departDelay="0.29" arrival="274.00" arrivalLane="210831345#1_0" arrivalPos="264.29" arrivalSpeed="15.07" duration="117.00" routeLength="977.93" waitingTime="39.00" waitingCount="2" stopTime="0.00" timeLoss="56.29" rerouteNo="0" devices="tripinfo_74" vType="DEFAULT_VEHTYPE" speedFactor="1.12" vaporized=""/>
    <tripinfo id="77" depart="164.00" departLane="-226276377#1_0" departPos="5.10" departSpeed="0.00" departDelay="0.94" arrival="279.00" arrivalLane="210831345#1_0" arrivalPos="264.29" arrivalSpeed="12.80" duration="115.00" routeLength="977.93" waitingTime="28.00" waitingCount="2" stopTime="0.00" timeLoss="46.40" rerouteNo="0" devices="tripinfo_77" vType="DEFAULT_VEHTYPE" speedFactor="1.00" vaporized=""/>
    <tripinfo id="115" depart="244.00" departLane="-218680176#1_0" departPos="5.10" departSpeed="0.00" departDelay="0.47" arrival="282.00" arrivalLane="153964138#0_1" arrivalPos="337.99" arrivalSpeed="14.39" duration="38.00" routeLength="462.27" waitingTime="0.00" waitingCount="0" stopTime="0.00" timeLoss="4.75" rerouteNo="0" devices="tripinfo_115" vType="DEFAULT_VEHTYPE" speedFactor="0.90" vaporized=""/>
    <tripinfo id="43" depart="92.00" departLane="E8_0" departPos="5.10" departSpeed="0.00" departDelay="0.94" arrival="291.00" arrivalLane="218680176#0_1" arrivalPos="98.94" arrivalSpeed="12.09" duration="199.00" routeLength="1637.20" waitingTime="53.00" waitingCount="2" stopTime="0.00" timeLoss="75.52" rerouteNo="0" devices="tripinfo_43" vType="DEFAULT_VEHTYPE" speedFactor="0.93" vaporized=""/>
    <tripinfo id="76" depart="161.00" departLane="-661251539_0" departPos="5.10" departSpeed="0.00" departDelay="0.06" arrival="292.00" arrivalLane="218680176#0_1" arrivalPos="98.94" arrivalSpeed="12.21" duration="131.00" routeLength="1001.21" waitingTime="39.00" waitingCount="1" stopTime="0.00" timeLoss="54.88" rerouteNo="0" devices="tripinfo_76" vType="DEFAULT_VEHTYPE" speedFactor="0.96" vaporized=""/>
    <tripinfo id="92" depart="195.00" departLane="-661251539_0" departPos="5.10" departSpeed="0.00" departDelay="0.18" arrival="295.00" arrivalLane="210831347#0_1" arrivalPos="149.88" arrivalSpeed="12.26" duration="100.00" routeLength="731.18" waitingTime="28.00" waitingCount="2" stopTime="0.00" timeLoss="44.37" rerouteNo="0" devices="tripinfo_92" vType="DEFAULT_VEHTYPE" speedFactor="0.98" vaporized=""/>