<?xml version="1.0" encoding="UTF-8"?>

<!-- generated on 2024-09-02 16:23:43 by Eclipse SUMO sumo Version 1.20.0
<configuration xmlns:xsi="http://www.w3.org/2001/XMLSchema-instance" xsi:noNamespaceSchemaLocation="http://sumo.dlr.de/xsd/sumoConfiguration.xsd">

    <input>
        <net-file value="c:\self\School\Master\Disertation\code\RESCO\resco_benchmark\environments/unirii/osm.net.xml.gz"/>
        <route-files value="c:\self\School\Master\Disertation\code\RESCO\resco_benchmark\environments/unirii/osm.passenger.trips.xml"/>
        <additional-files value="c:\self\School\Master\Disertation\code\RESCO\resco_benchmark\environments/unirii/osm.poly.xml.gz"/>
    </input>

    <output>
        <tripinfo-output value="C:\self\School\Master\Disertation\code\RESCO\results\MPLight-tr0-unirii-0-mplight-pressure\tripinfo_4.xml"/>
        <tripinfo-output.write-unfinished value="true"/>
    </output>

    <processing>
        <ignore-route-errors value="true"/>
        <time-to-teleport value="-1"/>
    </processing>

    <routing>
        <device.rerouting.adaptation-steps value="18"/>
        <device.rerouting.adaptation-interval value="10"/>
    </routing>

    <report>
        <verbose value="true"/>
        <no-warnings value="True"/>
        <duration-log.statistics value="true"/>
        <no-step-log value="True"/>
    </report>

    <traci_server>
        <remote-port value="64527"/>
    </traci_server>

    <random_number>
        <random value="true"/>
    </random_number>

    <gui_only>
        <gui-settings-file value="c:\self\School\Master\Disertation\code\RESCO\resco_benchmark\environments/unirii/osm.view.xml"/>
    </gui_only>

</configuration>
-->

<tripinfos xmlns:xsi="http://www.w3.org/2001/XMLSchema-instance" xsi:noNamespaceSchemaLocation="http://sumo.dlr.de/xsd/tripinfo_file.xsd">
    <tripinfo id="6" depart="13.00" departLane="-218680176#1_0" departPos="5.10" departSpeed="0.00" departDelay="0.29" arrival="57.00" arrivalLane="153964138#0_1" arrivalPos="337.99" arrivalSpeed="13.55" duration="44.00" routeLength="462.27" waitingTime="1.00" waitingCount="1" stopTime="0.00" timeLoss="10.26" rerouteNo="0" devices="tripinfo_6" vType="DEFAULT_VEHTYPE" speedFactor="0.88" vaporized=""/>
    <tripinfo id="0" depart="0.00" departLane="65746828#0_0" departPos="5.10" departSpeed="0.00" departDelay="0.00" arrival="77.00" arrivalLane="-256961141#1_1" arrivalPos="204.72" arrivalSpeed="14.29" duration="77.00" routeLength="931.50" waitingTime="7.00" waitingCount="1" stopTime="0.00" timeLoss="18.05" rerouteNo="0" devices="tripinfo_0" vType="DEFAULT_VEHTYPE" speedFactor="1.06" vaporized=""/>
    <tripinfo id="4" depart="9.00" departLane="-661251539_0" departPos="5.10" departSpeed="0.00" departDelay="0.53" arrival="84.00" arrivalLane="-256961141#1_1" arrivalPos="204.72" arrivalSpeed="12.09" duration="75.00" routeLength="872.91" waitingTime="0.00" waitingCount="0" stopTime="0.00" timeLoss="8.00" rerouteNo="0" devices="tripinfo_4" vType="DEFAULT_VEHTYPE" speedFactor="0.91" vaporized=""/>
    <tripinfo id="11" depart="24.00" departLane="-661251539_0" departPos="5.10" departSpeed="0.00" departDelay="0.71" arrival="113.00" arrivalLane="153964138#0_0" arrivalPos="337.99" arrivalSpeed="16.62" duration="89.00" routeLength="1239.04" waitingTime="0.00" waitingCount="0" stopTime="0.00" timeLoss="8.68" rerouteNo="0" devices="tripinfo_11" vType="DEFAULT_VEHTYPE" speedFactor="1.07" vaporized=""/>
    <tripinfo id="31" depart="66.00" departLane="65746828#0_0" departPos="5.10" departSpeed="0.00" departDelay="0.35" arrival="113.00" arrivalLane="231177697#0_0" arrivalPos="74.44" arrivalSpeed="14.34" duration="47.00" routeLength="558.79" waitingTime="0.00" waitingCount="0" stopTime="0.00" timeLoss="7.40" rerouteNo="0" devices="tripinfo_31" vType="DEFAULT_VEHTYPE" speedFactor="1.07" vaporized=""/>
    <tripinfo id="3" depart="7.00" departLane="E8_0" departPos="5.10" departSpeed="0.00" departDelay="0.65" arrival="121.00" arrivalLane="-256961141#1_0" arrivalPos="204.72" arrivalSpeed="13.74" duration="114.00" routeLength="832.89" waitingTime="45.00" waitingCount="1" stopTime="0.00" timeLoss="56.27" rerouteNo="0" devices="tripinfo_3" vType="DEFAULT_VEHTYPE" speedFactor="1.06" vaporized=""/>
    <tripinfo id="16" depart="34.00" departLane="256961141#0_0" departPos="5.10" departSpeed="0.00" departDelay="0.12" arrival="121.00" arrivalLane="450554042#0_0" arrivalPos="622.66" arrivalSpeed="16.46" duration="87.00" routeLength="853.74" waitingTime="24.00" waitingCount="1" stopTime="0.00" timeLoss="33.32" rerouteNo="0" devices="tripinfo_16" vType="DEFAULT_VEHTYPE" speedFactor="1.02" vaporized=""/>
    <tripinfo id="30" depart="64.00" departLane="E8_0" departPos="5.10" departSpeed="0.00" departDelay="0.47" arrival="142.00" arrivalLane="226276377#0_1" arrivalPos="135.52" arrivalSpeed="14.03" duration="78.00" routeLength="784.51" waitingTime="14.00" waitingCount="1" stopTime="0.00" timeLoss="25.64" rerouteNo="0" devices="tripinfo_30" vType="DEFAULT_VEHTYPE" speedFactor="1.09" vaporized=""/>
    <tripinfo id="25" depart="53.00" departLane="-661251539_0" departPos="5.10" departSpeed="0.00" departDelay="0.06" arrival="144.00" arrivalLane="153964138#0_0" arrivalPos="337.99" arrivalSpeed="20.07" duration="91.00" routeLength="1239.04" waitingTime="6.00" waitingCount="1" stopTime="0.00" timeLoss="21.18" rerouteNo="0" devices="tripinfo_25" vType="DEFAULT_VEHTYPE" speedFactor="1.22" vaporized=""/>
    <tripinfo id="20" depart="43.00" departLane="666135205#0_0" departPos="5.10" departSpeed="0.00" departDelay="0.65" arrival="149.00" arrivalLane="-256961141#1_1" arrivalPos="204.72" arrivalSpeed="12.70" duration="106.00" routeLength="1068.72" waitingTime="15.00" waitingCount="2" stopTime="0.00" timeLoss="31.86" rerouteNo="0" devices="tripinfo_20" vType="DEFAULT_VEHTYPE" speedFactor="0.97" vaporized=""/>
    <tripinfo id="28" depart="60.00" departLane="-226276377#1_0" departPos="5.10" departSpeed="0.00" departDelay="0.71" arrival="158.00" arrivalLane="231177697#0_0" arrivalPos="74.44" arrivalSpeed="12.66" duration="98.00" routeLength="1114.63" waitingTime="2.00" waitingCount="1" stopTime="0.00" timeLoss="17.02" rerouteNo="0" devices="tripinfo_28" vType="DEFAULT_VEHTYPE" speedFactor="0.97" vaporized=""/>
    <tripinfo id="13" depart="28.00" departLane="-218680176#1_0" departPos="5.10" departSpeed="0.00" departDelay="0.47" arrival="161.00" arrivalLane="-256961141#1_1" arrivalPos="204.72" arrivalSpeed="13.50" duration="133.00" routeLength="1207.38" waitingTime="32.00" waitingCount="2" stopTime="0.00" timeLoss="50.75" rerouteNo="0" devices="tripinfo_13" vType="DEFAULT_VEHTYPE" speedFactor="1.00" vaporized=""/>
    <tripinfo id="10" depart="23.00" departLane="978867529_0" departPos="5.10" departSpeed="0.00" departDelay="1.82" arrival="163.00" arrivalLane="231177697#0_1" arrivalPos="74.44" arrivalSpeed="13.12" duration="140.00" routeLength="437.06" waitingTime="102.00" waitingCount="1" stopTime="0.00" timeLoss="111.64" rerouteNo="0" devices="tripinfo_10" vType="DEFAULT_VEHTYPE" speedFactor="1.01" vaporized=""/>
    <tripinfo id="7" depart="15.00" departLane="65746828#0_0" departPos="5.10" departSpeed="0.00" departDelay="0.18" arrival="164.00" arrivalLane="218680176#0_1" arrivalPos="98.94" arrivalSpeed="15.20" duration="149.00" routeLength="602.71" waitingTime="98.00" waitingCount="1" stopTime="0.00" timeLoss="109.43" rerouteNo="0" devices="tripinfo_7" vType="DEFAULT_VEHTYPE" speedFactor="1.12" vaporized=""/>
    <tripinfo id="15" depart="33.00" departLane="978867529_0" departPos="5.10" departSpeed="0.00" departDelay="1.24" arrival="165.00" arrivalLane="231177697#0_1" arrivalPos="74.44" arrivalSpeed="13.33" duration="132.00" routeLength="437.06" waitingTime="94.00" waitingCount="1" stopTime="0.00" timeLoss="102.94" rerouteNo="0" devices="tripinfo_15" vType="DEFAULT_VEHTYPE" speedFactor="1.00" vaporized=""/>
    <tripinfo id="17" depart="36.00" departLane="-661251539_0" departPos="5.10" departSpeed="0.00" departDelay="0.00" arrival="166.00" arrivalLane="218680176#0_1" arrivalPos="98.94" arrivalSpeed="15.13" duration="130.00" routeLength="1001.21" waitingTime="46.00" waitingCount="2" stopTime="0.00" timeLoss="66.58" rerouteNo="0" devices="tripinfo_17" vType="DEFAULT_VEHTYPE" speedFactor="1.16" vaporized=""/>
    <tripinfo id="46" depart="98.00" departLane="978867529_0" departPos="5.10" departSpeed="0.00" departDelay="0.59" arrival="166.00" arrivalLane="210831347#0_0" arrivalPos="149.88" arrivalSpeed="15.28" duration="68.00" routeLength="812.56" waitingTime="7.00" waitingCount="1" stopTime="0.00" timeLoss="18.23" rerouteNo="0" devices="tripinfo_46" vType="DEFAULT_VEHTYPE" speedFactor="1.12" vaporized=""/>
    <tripinfo id="32" depart="68.00" departLane="978867529_0" departPos="5.10" departSpeed="0.00" departDelay="0.24" arrival="167.00" arrivalLane="231177697#0_1" arrivalPos="74.44" arrivalSpeed="13.18" duration="99.00" routeLength="437.06" waitingTime="59.00" waitingCount="1" stopTime="0.00" timeLoss="70.49" rerouteNo="0" devices="tripinfo_32" vType="DEFAULT_VEHTYPE" speedFactor="1.01" vaporized=""/>
    <tripinfo id="5" depart="11.00" departLane="-226276377#1_0" departPos="5.10" departSpeed="0.00" departDelay="0.41" arrival="169.00" arrivalLane="218680176#0_1" arrivalPos="98.94" arrivalSpeed="13.17" duration="158.00" routeLength="1158.55" waitingTime="58.00" waitingCount="2" stopTime="0.00" timeLoss="75.63" rerouteNo="0" devices="tripinfo_5" vType="DEFAULT_VEHTYPE" speedFactor="0.98" vaporized=""/>
    <tripinfo id="61" depart="130.00" departLane="978867529_0" departPos="5.10" departSpeed="0.00" departDelay="0.82" arrival="189.00" arrivalLane="218680176#0_0" arrivalPos="98.94" arrivalSpeed="13.34" duration="59.00" routeLength="442.15" waitingTime="18.00" waitingCount="1" stopTime="0.00" timeLoss="29.08" rerouteNo="0" devices="tripinfo_61" vType="DEFAULT_VEHTYPE" speedFactor="0.97" vaporized=""/>
    <tripinfo id="54" depart="115.00" departLane="256961141#0_0" departPos="5.10" departSpeed="0.00" departDelay="0.65" arrival="192.00" arrivalLane="450554042#0_1" arrivalPos="622.66" arrivalSpeed="18.71" duration="77.00" routeLength="853.74" waitingTime="19.00" waitingCount="1" stopTime="0.00" timeLoss="28.72" rerouteNo="0" devices="tripinfo_54" vType="DEFAULT_VEHTYPE" speedFactor="1.13" vaporized=""/>
    <tripinfo id="42" depart="89.00" departLane="-661251539_0" departPos="5.10" departSpeed="0.00" departDelay="0.06" arrival="207.00" arrivalLane="153964138#0_1" arrivalPos="337.99" arrivalSpeed="14.92" duration="118.00" routeLength="1239.04" waitingTime="11.00" waitingCount="1" stopTime="0.00" timeLoss="24.32" rerouteNo="0" devices="tripinfo_42" vType="DEFAULT_VEHTYPE" speedFactor="0.91" vaporized=""/>
    <tripinfo id="59" depart="125.00" departLane="65746828#0_0" departPos="5.10" departSpeed="0.00" departDelay="0.06" arrival="208.00" arrivalLane="153964138#0_0" arrivalPos="337.99" arrivalSpeed="12.67" duration="83.00" routeLength="834.49" waitingTime="3.00" waitingCount="1" stopTime="0.00" timeLoss="14.73" rerouteNo="0" devices="tripinfo_59" vType="DEFAULT_VEHTYPE" speedFactor="0.83" vaporized=""/>
    <tripinfo id="35" depart="75.00" departLane="-226276377#1_0" departPos="5.10" departSpeed="0.00" departDelay="0.88" arrival="210.00" arrivalLane="450554042#0_0" arrivalPos="622.66" arrivalSpeed="10.40" duration="135.00" routeLength="763.53" waitingTime="53.00" waitingCount="1" stopTime="0.00" timeLoss="63.75" rerouteNo="0" devices="tripinfo_35" vType="DEFAULT_VEHTYPE" speedFactor="0.68" vaporized=""/>
    <tripinfo id="29" depart="63.00" departLane="-226276377#1_0" departPos="5.10" departSpeed="0.00" departDelay="1.59" arrival="221.00" arrivalLane="210831347#0_1" arrivalPos="149.88" arrivalSpeed="12.14" duration="158.00" routeLength="888.52" waitingTime="74.00" waitingCount="2" stopTime="0.00" timeLoss="91.56" rerouteNo="0" devices="tripinfo_29" vType="DEFAULT_VEHTYPE" speedFactor="0.92" vaporized=""/>
    <tripinfo id="12" depart="26.00" departLane="E8_0" departPos="5.10" departSpeed="0.00" departDelay="0.59" arrival="222.00" arrivalLane="210831347#0_1" arrivalPos="149.88" arrivalSpeed="14.30" duration="196.00" routeLength="1367.17" waitingTime="87.00" waitingCount="2" stopTime="0.00" timeLoss="108.55" rerouteNo="0" devices="tripinfo_12" vType="DEFAULT_VEHTYPE" speedFactor="1.09" vaporized=""/>
    <tripinfo id="53" depart="113.00" departLane="-226276377#1_0" departPos="5.10" departSpeed="0.00" departDelay="0.76" arrival="226.00" arrivalLane="210831347#0_1" arrivalPos="149.88" arrivalSpeed="10.55" duration="113.00" routeLength="888.52" waitingTime="26.00" waitingCount="2" stopTime="0.00" timeLoss="41.03" rerouteNo="0" devices="tripinfo_53" vType="DEFAULT_VEHTYPE" speedFactor="0.85" vaporized=""/>
    <tripinfo id="1" depart="3.00" departLane="-231177697#2_0" departPos="5.10" departSpeed="0.00" departDelay="0.88" arrival="229.00" arrivalLane="210831345#1_1" arrivalPos="264.29" arrivalSpeed="12.78" duration="226.00" routeLength="696.92" waitingTime="157.00" waitingCount="2" stopTime="0.00" timeLoss="171.52" rerouteNo="0" devices="tripinfo_1" vType="DEFAULT_VEHTYPE" speedFactor="0.94" vaporized=""/>
    <tripinfo id="22" depart="47.00" departLane="-218680176#1_0" departPos="5.10" departSpeed="0.00" departDelay="0.41" arrival="236.00" arrivalLane="210831345#1_0" arrivalPos="264.29" arrivalSpeed="10.45" duration="189.00" routeLength="699.94" waitingTime="112.00" waitingCount="1" stopTime="0.00" timeLoss="124.62" rerouteNo="0" devices="tripinfo_22" vType="DEFAULT_VEHTYPE" speedFactor="0.81" vaporized=""/>
    <tripinfo id="23" depart="50.00" departLane="-218680176#1_0" departPos="5.10" departSpeed="0.00" departDelay="1.29" arrival="237.00" arrivalLane="210831345#1_1" arrivalPos="264.29" arrivalSpeed="11.55" duration="187.00" routeLength="699.94" waitingTime="112.00" waitingCount="1" stopTime="0.00" timeLoss="127.29" rerouteNo="0" devices="tripinfo_23" vType="DEFAULT_VEHTYPE" speedFactor="0.87" vaporized=""/>
    <tripinfo id="36" depart="77.00" departLane="978867529_0" departPos="5.10" departSpeed="0.00" departDelay="0.76" arrival="238.00" arrivalLane="210831345#1_0" arrivalPos="264.29" arrivalSpeed="13.26" duration="161.00" routeLength="951.92" waitingTime="85.00" waitingCount="1" stopTime="0.00" timeLoss="104.64" rerouteNo="0" devices="tripinfo_36" vType="DEFAULT_VEHTYPE" speedFactor="1.17" vaporized=""/>
    <tripinfo id="55" depart="117.00" departLane="978867529_0" departPos="5.10" departSpeed="0.00" departDelay="0.53" arrival="239.00" arrivalLane="210831345#1_1" arrivalPos="264.29" arrivalSpeed="12.38" duration="122.00" routeLength="951.92" waitingTime="37.00" waitingCount="1" stopTime="0.00" timeLoss="52.71" rerouteNo="0" devices="tripinfo_55" vType="DEFAULT_VEHTYPE" speedFactor="0.95" vaporized=""/>
    <tripinfo id="79" depart="168.00" departLane="-231177697#2_0" departPos="5.10" departSpeed="0.00" departDelay="0.71" arrival="251.00" arrivalLane="153964138#0_0" arrivalPos="337.99" arrivalSpeed="14.34" duration="83.00" routeLength="417.38" waitingTime="44.00" waitingCount="1" stopTime="0.00" timeLoss="52.64" rerouteNo="0" devices="tripinfo_79" vType="DEFAULT_VEHTYPE" speedFactor="0.89" vaporized=""/>
    <tripinfo id="74" depart="157.00" departLane="-226276377#1_0" departPos="5.10" departSpeed="0.00" departDelay="0.29" arrival="254.00" arrivalLane="210831345#1_0" arrivalPos="264.29" arrivalSpeed="13.16" duration="97.00" routeLength="977.93" waitingTime="15.00" waitingCount="1" stopTime="0.00" timeLoss="26.72" rerouteNo="0" devices="tripinfo_74" vType="DEFAULT_VEHTYPE" speedFactor="0.97" vaporized=""/>
    <tripinfo id="77" depart="164.00" departLane="-226276377#1_0" departPos="5.10" departSpeed="0.00" departDelay="0.94" arrival="254.00" arrivalLane="210831345#1_1" arrivalPos="264.29" arrivalSpeed="17.01" duration="90.00" routeLength="977.93" waitingTime="14.00" waitingCount="1" stopTime="0.00" timeLoss="34.92" rerouteNo="0" devices="tripinfo_77" vType="DEFAULT_VEHTYPE" speedFactor="1.24" vaporized=""/>
    <tripinfo id="86" depart="183.00" departLane="256961141#0_0" departPos="5.10" departSpeed="0.00" departDelay="0.88" arrival="255.00" arrivalLane="39907424_0" arrivalPos="316.44" arrivalSpeed="14.62" duration="72.00" routeLength="873.95" waitingTime="4.00" waitingCount="1" stopTime="0.00" timeLoss="16.99" rerouteNo="0" devices="tripinfo_86" vType="DEFAULT_VEHTYPE" speedFactor="1.10" vaporized=""/>
    <tripinfo id="92" depart="195.00" departLane="-661251539_0" departPos="5.10" departSpeed="0.00" departDelay="0.18" arrival="269.00" arrivalLane="210831347#0_1" arrivalPos="149.88" arrivalSpeed="13.60" duration="74.00" routeLength="731.18" waitingTime="8.00" waitingCount="1" stopTime="0.00" timeLoss="21.14" rerouteNo="0" devices="tripinfo_92" vType="DEFAULT_VEHTYPE" speedFactor="1.02" vaporized=""/>
    <tripinfo id="64" depart="136.00" departLane="978867529_0" departPos="5.10" departSpeed="0.00" departDelay="0.47" arrival="272.00" arrivalLane="39907424_0" arrivalPos="316.44" arrivalSpeed="13.55" duration="136.00" routeLength="1216.15" waitingTime="34.00" waitingCount="2" stopTime="0.00" timeLoss="56.78" rerouteNo="0" devices="tripinfo_64" vType="DEFAULT_VEHTYPE" speedFactor="1.04" vaporized=""/>
    <tripinfo id="115" depart="244.00" departLane="-218680176#1_0" departPos="5.10" departSpeed="0.00" departDelay="0.47" arrival="278.00" arrivalLane="153964138#0_2" arrivalPos="337.99" arrivalSpeed="16.84" duration="34.00" routeLength="462.27" waitingTime="0.00" waitingCount="0" stopTime="0.00" timeLoss="4.86" rerouteNo="0" devices="tripinfo_115" vType="DEFAULT_VEHTYPE" speedFactor="1.02" vaporized=""/>
    <tripinfo id="14" depart="30.00" departLane="978867529_0" departPos="5.10" departSpeed="0.00" departDelay="0.35" arrival="291.00" arrivalLane="226276377#0_0" arrivalPos="135.52" arrivalSpeed="14.83" duration="261.00" routeLength="1369.55" waitingTime="159.00" waitingCount="2" stopTime="0.00" timeLoss="177.32" rerouteNo="0" devices="tripinfo_14" vType="DEFAULT_VEHTYPE" speedFactor="1.07" vaporized=""/>
    <tripinfo id="18" depart="39.00" departLane="978867529_0" departPos="5.10" departSpeed="0.00" departDelay="0.88" arrival="295.00" arrivalLane="226276377#0_0" arrivalPos="135.52" arrivalSpeed="11.74" duration="256.00" routeLength="1369.55" waitingTime="142.00" waitingCount="2" stopTime="0.00" timeLoss="159.76" rerouteNo="0" devices="tripinfo_18" vType="DEFAULT_VEHTYPE" speedFactor="0.93" vaporized=""/>
    <tripinfo id="40" depart="85.00" departLane="65746828#0_0" departPos="5.10" departSpeed="0.00" departDelay="0.29" arrival="297.00" arrivalLane="210831345#1_0" arrivalPos="264.29" arrivalSpeed="14.71" duration="212.00" routeLength="446.75" waitingTime="165.00" waitingCount="2" stopTime="0.00" timeLoss="181.42" rerouteNo="0" devices="tripinfo_40" vType="DEFAULT_VEHTYPE" speedFactor="1.07" vaporized=""/>
    <tripinfo id="91" depart="193.00" departLane="E8_0" departPos="5.10" departSpeed="0.00" departDelay="0.29" arrival="299.00" arrivalLane="-256961141#1_0" arrivalPos="204.72" arrivalSpeed="16.30" duration="106.00" routeLength="832.89" waitingTime="41.00" waitingCount="1" stopTime="0.00" timeLoss="56.05" rerouteNo="0" devices="tripinfo_91" vType="DEFAULT_VEHTYPE" speedFactor="1.22" vaporized=""/>
    <tripinfo id="19" depart="42.00" departLane="978867529_0" departPos="5.10" departSpeed="0.00" departDelay="1.76" arrival="300.00" arrivalLane="226276377#0_0" arrivalPos="135.52" arrivalSpeed="10.72" duration="258.00" routeLength="1369.55" waitingTime="128.00" waitingCount="2" stopTime="0.00" timeLoss="148.54" rerouteNo="0" devices="tripinfo_19" vType="DEFAULT_VEHTYPE" speedFactor="0.82" vaporized=""/>
    <tripinfo id="78" depart="166.00" departLane="-661251539_0" departPos="5.10" departSpeed="0.00" departDelay="0.82" arrival="301.00" arrivalLane="226276377#0_0" arrivalPos="135.52" arrivalSpeed="12.78" duration="135.00" routeLength="783.10" waitingTime="67.00" waitingCount="1" stopTime="0.00" timeLoss="84.58" rerouteNo="0" devices="tripinfo_78" vType="DEFAULT_VEHTYPE" speedFactor="1.07" vaporized=""/>
    <tripinfo id="27" depart="58.00" departLane="65746828#0_0" departPos="5.10" departSpeed="0.00" departDelay="0.82" arrival="303.00" arrivalLane="226276377#0_0" arrivalPos="135.52" arrivalSpeed="13.20" duration="245.00" routeLength="841.69" waitingTime="167.00" waitingCount="2" stopTime="0.00" timeLoss="186.34" rerouteNo="0" devices="tripinfo_27" vType="DEFAULT_VEHTYPE" speedFactor="0.96" vaporized=""/>
    <tripinfo id="45" depart="97.00" departLane="-218680176#1_0" departPos="5.10" departSpeed="0.00" departDelay="1.71" arrival="305.00" arrivalLane="226276377#0_0" arrivalPos="135.52" arrivalSpeed="12.51" duration="208.00" routeLength="1117.57" waitingTime="109.00" waitingCount="2" stopTime="0.00" timeLoss="129.76" rerouteNo="0" devices="tripinfo_45" vType="DEFAULT_VEHTYPE" speedFactor="0.97" vaporized=""/>
    <tripinfo id="128" depart="272.00" departLane="-218680176#1_0" departPos="5.10" departSpeed="0.00" departDelay="0.94" arrival="309.00" arrivalLane="153964138#0_2" arrivalPos="337.99" arrivalSpeed="15.58" duration="37.00" routeLength="462.27" waitingTime="0.00" waitingCount="0" stopTime="0.00" timeLoss="5.04" rerouteNo="0" devices="tripinfo_128" vType="DEFAULT_VEHTYPE" speedFactor="0.95" vaporized=""/>
    <tripinfo id="66" depart="140.00" departLane="978867529_0" departPos="5.10" departSpeed="0.00" departDelay="0.24" arrival="315.00" arrivalLane="450554042#0_0" arrivalPos="622.66" arrivalSpeed="20.38" duration="175.00" routeLength="1868.58" waitingTime="49.00" waitingCount="3" stopTime="0.00" timeLoss="79.85" rerouteNo="0" devices="tripinfo_66" vType="DEFAULT_VEHTYPE" speedFactor="1.24" vaporized=""/>
    <tripinfo id="47" depart="100.00" departLane="-218680176#1_0" departPos="5.10" departSpeed="0.00" departDelay="0.47" arrival="318.00" arrivalLane="210831347#0_0" arrivalPos="149.88" arrivalSpeed="12.58" duration="218.00" routeLength="560.58" waitingTime="150.00" waitingCount="4" stopTime="0.00" timeLoss="175.74" rerouteNo="0" devices="tripinfo_47" vType="DEFAULT_VEHTYPE" speedFactor="1.00" vaporized=""/>
    <tripinfo id="120" depart="255.00" departLane="-661251539_0" departPos="5.10" departSpeed="0.00" departDelay="0.88" arrival="319.00" arrivalLane="226276377#0_0" arrivalPos="135.52" arrivalSpeed="13.66" duration="64.00" routeLength="783.10" waitingTime="0.00" waitingCount="0" stopTime="0.00" timeLoss="9.38" rerouteNo="0" devices="tripinfo_120" vType="DEFAULT_VEHTYPE" speedFactor="1.00" vaporized=""/>
    <tripinfo id="123" depart="261.00" departLane="-231177697#2_0" departPos="5.10" departSpeed="0.00" departDelay="0.53" arrival="323.00" arrivalLane="210831347#0_0" arrivalPos="149.88" arrivalSpeed="13.00" duration="62.00" routeLength="557.56" waitingTime="5.00" waitingCount="2" stopTime="0.00" timeLoss="21.47" rerouteNo="0" devices="tripinfo_123" vType="DEFAULT_VEHTYPE" speedFactor="1.02" vaporized=""/>
    <tripinfo id="95" depart="202.00" departLane="-661251539_0" departPos="5.10" departSpeed="0.00" departDelay="0.82" arrival="326.00" arrivalLane="210831345#1_0" arrivalPos="264.29" arrivalSpeed="15.54" duration="124.00" routeLength="826.64" waitingTime="51.00" waitingCount="2" stopTime="0.00" timeLoss="70.88" rerouteNo="0" devices="tripinfo_95" vType="DEFAULT_VEHTYPE" speedFactor="1.15" vaporized=""/>
    <tripinfo id="109" depart="231.00" departLane="-226276377#1_0" departPos="5.10" departSpeed="0.00" departDelay="0.18" arrival="328.00" arrivalLane="210831345#1_0" arrivalPos="264.29" arrivalSpeed="16.53" duration="97.00" routeLength="977.93" waitingTime="20.00" waitingCount="2" stopTime="0.00" timeLoss="41.13" rerouteNo="0" devices="tripinfo_109" vType="DEFAULT_VEHTYPE" speedFactor="1.23" vaporized=""/>
    <tripinfo id="49" depart="105.00" departLane="E8_0" departPos="5.10" departSpeed="0.00" departDelay="1.24" arrival="332.00" arrivalLane="39907424_0" arrivalPos="316.44" arrivalSpeed="12.50" duration="227.00" routeLength="1303.68" waitingTime="118.00" waitingCount="1" stopTime="0.00" timeLoss="131.57" rerouteNo="0" devices="tripinfo_49" vType="DEFAULT_VEHTYPE" speedFactor="0.96" vaporized=""/>
    <tripinfo id="104" depart="222.00" departLane="-661251539_0" departPos="5.10" departSpeed="0.00" departDelay="1.76" arrival="332.00" arrivalLane="450554042#0_0" arrivalPos="622.66" arrivalSpeed="13.70" duration="110.00" routeLength="1282.13" waitingTime="0.00" waitingCount="0" stopTime="0.00" timeLoss="10.89" rerouteNo="0" devices="tripinfo_104" vType="DEFAULT_VEHTYPE" speedFactor="0.83" vaporized=""/>
    <tripinfo id="57" depart="121.00" departLane="E8_0" departPos="5.10" departSpeed="0.00" departDelay="0.29" arrival="333.00" arrivalLane="39907424_0" arrivalPos="316.44" arrivalSpeed="14.44" duration="212.00" routeLength="1303.68" waitingTime="110.00" waitingCount="1" stopTime="0.00" timeLoss="131.90" rerouteNo="0" devices="tripinfo_57" vType="DEFAULT_VEHTYPE" speedFactor="1.13" vaporized=""/>
    <tripinfo id="99" depart="210.00" departLane="E8_0" departPos="5.10" departSpeed="0.00" departDelay="0.35" arrival="336.00" arrivalLane="39907424_0" arrivalPos="316.44" arrivalSpeed="12.93" duration="126.00" routeLength="1303.68" waitingTime="17.00" waitingCount="1" stopTime="0.00" timeLoss="35.89" rerouteNo="0" devices="tripinfo_99" vType="DEFAULT_VEHTYPE" speedFactor="1.01" vaporized=""/>
    <tripinfo id="2" depart="5.00" departLane="666135205#0_0" departPos="5.10" departSpeed="0.00" departDelay="0.76" arrival="340.00" arrivalLane="231177697#0_0" arrivalPos="74.44" arrivalSpeed="12.56" duration="335.00" routeLength="649.17" waitingTime="267.00" waitingCount="2" stopTime="0.00" timeLoss="285.48" rerouteNo="0" devices="tripinfo_2" vType="DEFAULT_VEHTYPE" speedFactor="0.99" vaporized=""/>
    <tripinfo id="73" depart="155.00" departLane="256961141#0_0" departPos="5.10" departSpeed="0.00" departDelay="0.41" arrival="343.00" arrivalLane="231177697#0_0" arrivalPos="74.44" arrivalSpeed="13.74" duration="188.00" routeLength="1163.55" waitingTime="84.00" waitingCount="2" stopTime="0.00" timeLoss="105.19" rerouteNo="0" devices="tripinfo_73" vType="DEFAULT_VEHTYPE" speedFactor="1.00" vaporized=""/>
    <tripinfo id="108" depart="229.00" departLane="65746828#0_0" departPos="5.10" departSpeed="0.00" departDelay="0.29" arrival="344.00" arrivalLane="231177697#0_0" arrivalPos="74.44" arrivalSpeed="14.13" duration="115.00" routeLength="558.79" waitingTime="57.00" waitingCount="2" stopTime="0.00" timeLoss="76.98" rerouteNo="0" devices="tripinfo_108" vType="DEFAULT_VEHTYPE" speedFactor="1.08" vaporized=""/>
    <tripinfo id="116" depart="246.00" departLane="65746828#0_0" departPos="5.10" departSpeed="0.00" departDelay="0.35" arrival="346.00" arrivalLane="231177697#0_0" arrivalPos="74.44" arrivalSpeed="14.42" duration="100.00" routeLength="558.79" waitingTime="42.00" waitingCount="2" stopTime="0.00" timeLoss="61.05" rerouteNo="0" devices="tripinfo_116" vType="DEFAULT_VEHTYPE" speedFactor="1.06" vaporized=""/>
    <tripinfo id="122" depart="259.00" departLane="-226276377#1_0" departPos="5.10" departSpeed="0.00" departDelay="0.65" arrival="350.00" arrivalLane="231177697#0_0" arrivalPos="74.44" arrivalSpeed="12.74" duration="91.00" routeLength="1114.63" waitingTime="0.00" waitingCount="0" stopTime="0.00" timeLoss="11.50" rerouteNo="0" devices="tripinfo_122" vType="DEFAULT_VEHTYPE" speedFactor="0.98" vaporized=""/>
    <tripinfo id="105" depart="223.00" departLane="-231177697#2_0" departPos="5.10" departSpeed="0.00" departDelay="0.65" arrival="351.00" arrivalLane="39907424_0" arrivalPos="316.44" arrivalSpeed="13.27" duration="128.00" routeLength="961.15" waitingTime="39.00" waitingCount="3" stopTime="0.00" timeLoss="60.21" rerouteNo="0" devices="tripinfo_105" vType="DEFAULT_VEHTYPE" speedFactor="1.00" vaporized=""/>
    <tripinfo id="84" depart="178.00" departLane="-226276377#1_0" departPos="5.10" departSpeed="0.00" departDelay="0.12" arrival="353.00" arrivalLane="153964138#0_1" arrivalPos="337.99" arrivalSpeed="16.20" duration="175.00" routeLength="1390.33" waitingTime="72.00" waitingCount="1" stopTime="0.00" timeLoss="85.82" rerouteNo="0" devices="tripinfo_84" vType="DEFAULT_VEHTYPE" speedFactor="1.04" vaporized=""/>
    <tripinfo id="56" depart="119.00" departLane="256961141#0_0" departPos="5.10" departSpeed="0.00" departDelay="0.41" arrival="354.00" arrivalLane="153964138#0_0" arrivalPos="337.99" arrivalSpeed="16.25" duration="235.00" routeLength="1439.25" waitingTime="120.00" waitingCount="2" stopTime="0.00" timeLoss="138.09" rerouteNo="0" devices="tripinfo_56" vType="DEFAULT_VEHTYPE" speedFactor="1.00" vaporized=""/>
    <tripinfo id="72" depart="153.00" departLane="-661251539_0" departPos="5.10" departSpeed="0.00" departDelay="0.53" arrival="354.00" arrivalLane="153964138#0_2" arrivalPos="337.99" arrivalSpeed="16.09" duration="201.00" routeLength="1239.04" waitingTime="92.00" waitingCount="2" stopTime="0.00" timeLoss="114.11" rerouteNo="0" devices="tripinfo_72" vType="DEFAULT_VEHTYPE" speedFactor="0.99" vaporized=""/>
    <tripinfo id="102" depart="216.00" departLane="256961141#0_0" departPos="5.10" departSpeed="0.00" departDelay="0.00" arrival="355.00" arrivalLane="153964138#0_1" arrivalPos="337.99" arrivalSpeed="16.72" duration="139.00" routeLength="1439.25" waitingTime="24.00" waitingCount="1" stopTime="0.00" timeLoss="42.70" rerouteNo="0" devices="tripinfo_102" vType="DEFAULT_VEHTYPE" speedFactor="1.00" vaporized=""/>
    <tripinfo id="71" depart="151.00" departLane="-231177697#2_0" departPos="5.10" departSpeed="0.00" departDelay="0.65" arrival="362.00" arrivalLane="39907424_0" arrivalPos="316.44" arrivalSpeed="12.40" duration="211.00" routeLength="961.15" waitingTime="115.00" waitingCount="2" stopTime="0.00" timeLoss="137.02" rerouteNo="0" devices="tripinfo_71" vType="DEFAULT_VEHTYPE" speedFactor="0.93" vaporized=""/>