<?xml version="1.0" encoding="UTF-8"?>

<!-- generated on 2024-08-31 19:23:52 by Eclipse SUMO sumo Version 1.20.0
<configuration xmlns:xsi="http://www.w3.org/2001/XMLSchema-instance" xsi:noNamespaceSchemaLocation="http://sumo.dlr.de/xsd/sumoConfiguration.xsd">

    <input>
        <net-file value="c:\self\School\Master\Disertation\code\RESCO\resco_benchmark\environments/romana/osm.net.xml.gz"/>
        <route-files value="c:\self\School\Master\Disertation\code\RESCO\resco_benchmark\environments/romana/osm.passenger.trips.xml"/>
        <additional-files value="c:\self\School\Master\Disertation\code\RESCO\resco_benchmark\environments/romana/osm.poly.xml.gz"/>
    </input>

    <output>
        <tripinfo-output value="C:\self\School\Master\Disertation\code\RESCO\results\IDQN-tr0-romana-0-drq-wait\tripinfo_9.xml"/>
        <tripinfo-output.write-unfinished value="true"/>
    </output>

    <processing>
        <ignore-route-errors value="true"/>
        <time-to-teleport value="-1"/>
    </processing>

    <routing>
        <device.rerouting.adaptation-steps value="18"/>
        <device.rerouting.adaptation-interval value="10"/>
    </routing>

    <report>
        <verbose value="true"/>
        <no-warnings value="True"/>
        <duration-log.statistics value="true"/>
        <no-step-log value="True"/>
    </report>

    <traci_server>
        <remote-port value="58937"/>
    </traci_server>

    <random_number>
        <random value="true"/>
    </random_number>

    <gui_only>
        <gui-settings-file value="c:\self\School\Master\Disertation\code\RESCO\resco_benchmark\environments/romana/osm.view.xml"/>
    </gui_only>

</configuration>
-->

<tripinfos xmlns:xsi="http://www.w3.org/2001/XMLSchema-instance" xsi:noNamespaceSchemaLocation="http://sumo.dlr.de/xsd/tripinfo_file.xsd">
    <tripinfo id="0" depart="0.00" departLane="448266581#0_0" departPos="5.10" departSpeed="0.00" departDelay="0.00" arrival="32.00" arrivalLane="119238380#0_0" arrivalPos="135.86" arrivalSpeed="13.82" duration="32.00" routeLength="354.71" waitingTime="0.00" waitingCount="0" stopTime="0.00" timeLoss="8.17" rerouteNo="0" devices="tripinfo_0" vType="DEFAULT_VEHTYPE" speedFactor="1.04" vaporized=""/>
    <tripinfo id="1" depart="4.00" departLane="232079775#2_0" departPos="5.10" departSpeed="0.00" departDelay="0.40" arrival="34.00" arrivalLane="119238385#0_0" arrivalPos="144.87" arrivalSpeed="14.51" duration="30.00" routeLength="347.78" waitingTime="0.00" waitingCount="0" stopTime="0.00" timeLoss="6.43" rerouteNo="0" devices="tripinfo_1" vType="DEFAULT_VEHTYPE" speedFactor="1.09" vaporized=""/>
    <tripinfo id="2" depart="8.00" departLane="448266581#0_0" departPos="5.10" departSpeed="0.00" departDelay="0.80" arrival="52.00" arrivalLane="778823268#0_0" arrivalPos="238.22" arrivalSpeed="16.25" duration="44.00" routeLength="546.01" waitingTime="0.00" waitingCount="0" stopTime="0.00" timeLoss="10.57" rerouteNo="0" devices="tripinfo_2" vType="DEFAULT_VEHTYPE" speedFactor="1.18" vaporized=""/>
    <tripinfo id="10" depart="36.00" departLane="668307639#0_0" departPos="5.10" departSpeed="0.00" departDelay="0.00" arrival="73.00" arrivalLane="778823268#0_0" arrivalPos="238.22" arrivalSpeed="17.34" duration="37.00" routeLength="503.37" waitingTime="0.00" waitingCount="0" stopTime="0.00" timeLoss="10.14" rerouteNo="0" devices="tripinfo_10" vType="DEFAULT_VEHTYPE" speedFactor="1.27" vaporized=""/>
    <tripinfo id="12" depart="44.00" departLane="668307639#0_0" departPos="5.10" departSpeed="0.00" departDelay="0.80" arrival="79.00" arrivalLane="44499684#3_0" arrivalPos="84.04" arrivalSpeed="15.41" duration="35.00" routeLength="485.82" waitingTime="0.00" waitingCount="0" stopTime="0.00" timeLoss="4.87" rerouteNo="0" devices="tripinfo_12" vType="DEFAULT_VEHTYPE" speedFactor="1.00" vaporized=""/>
    <tripinfo id="13" depart="47.00" departLane="-778823268#1_0" departPos="5.10" departSpeed="0.00" departDelay="0.20" arrival="98.00" arrivalLane="119238380#0_0" arrivalPos="135.86" arrivalSpeed="13.39" duration="51.00" routeLength="461.48" waitingTime="5.00" waitingCount="1" stopTime="0.00" timeLoss="17.10" rerouteNo="0" devices="tripinfo_13" vType="DEFAULT_VEHTYPE" speedFactor="1.02" vaporized=""/>
    <tripinfo id="4" depart="15.00" departLane="232079775#2_0" departPos="5.10" departSpeed="0.00" departDelay="0.60" arrival="100.00" arrivalLane="119238380#0_0" arrivalPos="135.86" arrivalSpeed="12.58" duration="85.00" routeLength="467.31" waitingTime="33.00" waitingCount="2" stopTime="0.00" timeLoss="49.39" rerouteNo="0" devices="tripinfo_4" vType="DEFAULT_VEHTYPE" speedFactor="0.97" vaporized=""/>
    <tripinfo id="7" depart="26.00" departLane="448266581#0_0" departPos="5.10" departSpeed="0.00" departDelay="0.80" arrival="101.00" arrivalLane="668307633#3_0" arrivalPos="112.63" arrivalSpeed="13.70" duration="75.00" routeLength="489.91" waitingTime="27.00" waitingCount="1" stopTime="0.00" timeLoss="39.54" rerouteNo="0" devices="tripinfo_7" vType="DEFAULT_VEHTYPE" speedFactor="0.83" vaporized=""/>
    <tripinfo id="15" depart="54.00" departLane="668307639#0_0" departPos="5.10" departSpeed="0.00" departDelay="0.00" arrival="101.00" arrivalLane="778823268#0_0" arrivalPos="238.22" arrivalSpeed="13.69" duration="47.00" routeLength="503.37" waitingTime="1.00" waitingCount="1" stopTime="0.00" timeLoss="12.83" rerouteNo="0" devices="tripinfo_15" vType="DEFAULT_VEHTYPE" speedFactor="1.02" vaporized=""/>
    <tripinfo id="3" depart="11.00" departLane="668307639#0_0" departPos="5.10" departSpeed="0.00" departDelay="0.20" arrival="102.00" arrivalLane="119238380#0_0" arrivalPos="135.86" arrivalSpeed="14.09" duration="91.00" routeLength="496.91" waitingTime="37.00" waitingCount="2" stopTime="0.00" timeLoss="58.48" rerouteNo="0" devices="tripinfo_3" vType="DEFAULT_VEHTYPE" speedFactor="1.06" vaporized=""/>
    <tripinfo id="6" depart="22.00" departLane="-778823268#1_0" departPos="5.10" departSpeed="0.00" departDelay="0.40" arrival="103.00" arrivalLane="119238385#0_0" arrivalPos="144.87" arrivalSpeed="11.95" duration="81.00" routeLength="522.97" waitingTime="25.00" waitingCount="1" stopTime="0.00" timeLoss="37.51" rerouteNo="0" devices="tripinfo_6" vType="DEFAULT_VEHTYPE" speedFactor="0.90" vaporized=""/>
    <tripinfo id="17" depart="62.00" departLane="232079775#2_0" departPos="5.10" departSpeed="0.00" departDelay="0.80" arrival="103.00" arrivalLane="668307633#3_0" arrivalPos="112.63" arrivalSpeed="16.17" duration="41.00" routeLength="455.41" waitingTime="0.00" waitingCount="0" stopTime="0.00" timeLoss="9.86" rerouteNo="0" devices="tripinfo_17" vType="DEFAULT_VEHTYPE" speedFactor="1.00" vaporized=""/>
    <tripinfo id="5" depart="18.00" departLane="-778823268#1_0" departPos="5.10" departSpeed="0.00" departDelay="0.00" arrival="104.00" arrivalLane="668307633#3_1" arrivalPos="112.63" arrivalSpeed="14.85" duration="86.00" routeLength="595.69" waitingTime="29.00" waitingCount="1" stopTime="0.00" timeLoss="41.21" rerouteNo="0" devices="tripinfo_5" vType="DEFAULT_VEHTYPE" speedFactor="0.90" vaporized=""/>
    <tripinfo id="8" depart="29.00" departLane="-778823268#1_0" departPos="5.10" departSpeed="0.00" departDelay="0.20" arrival="106.00" arrivalLane="668307633#3_1" arrivalPos="112.63" arrivalSpeed="15.47" duration="77.00" routeLength="595.69" waitingTime="23.00" waitingCount="1" stopTime="0.00" timeLoss="34.08" rerouteNo="0" devices="tripinfo_8" vType="DEFAULT_VEHTYPE" speedFactor="0.96" vaporized=""/>
    <tripinfo id="21" depart="76.00" departLane="-778823268#1_0" departPos="5.10" departSpeed="0.00" departDelay="0.40" arrival="119.00" arrivalLane="119238385#0_0" arrivalPos="144.87" arrivalSpeed="13.64" duration="43.00" routeLength="522.97" waitingTime="0.00" waitingCount="0" stopTime="0.00" timeLoss="5.89" rerouteNo="0" devices="tripinfo_21" vType="DEFAULT_VEHTYPE" speedFactor="1.06" vaporized=""/>
    <tripinfo id="18" depart="65.00" departLane="668307639#0_0" departPos="5.10" departSpeed="0.00" departDelay="0.20" arrival="122.00" arrivalLane="668307633#3_1" arrivalPos="112.63" arrivalSpeed="14.53" duration="57.00" routeLength="623.09" waitingTime="0.00" waitingCount="0" stopTime="0.00" timeLoss="11.28" rerouteNo="0" devices="tripinfo_18" vType="DEFAULT_VEHTYPE" speedFactor="0.89" vaporized=""/>
    <tripinfo id="22" depart="80.00" departLane="-778823268#1_0" departPos="5.10" departSpeed="0.00" departDelay="0.80" arrival="124.00" arrivalLane="119238385#0_0" arrivalPos="144.87" arrivalSpeed="13.81" duration="44.00" routeLength="522.97" waitingTime="0.00" waitingCount="0" stopTime="0.00" timeLoss="6.85" rerouteNo="0" devices="tripinfo_22" vType="DEFAULT_VEHTYPE" speedFactor="1.06" vaporized=""/>
    <tripinfo id="14" depart="51.00" departLane="668307639#0_0" departPos="5.10" departSpeed="0.00" departDelay="0.60" arrival="127.00" arrivalLane="668307633#3_0" arrivalPos="112.63" arrivalSpeed="17.02" duration="76.00" routeLength="625.14" waitingTime="17.00" waitingCount="3" stopTime="0.00" timeLoss="37.95" rerouteNo="0" devices="tripinfo_14" vType="DEFAULT_VEHTYPE" speedFactor="1.05" vaporized=""/>
    <tripinfo id="9" depart="33.00" departLane="668307639#0_0" departPos="5.10" departSpeed="0.00" departDelay="0.60" arrival="130.00" arrivalLane="119238380#0_0" arrivalPos="135.86" arrivalSpeed="11.67" duration="97.00" routeLength="495.44" waitingTime="45.00" waitingCount="2" stopTime="0.00" timeLoss="59.74" rerouteNo="0" devices="tripinfo_9" vType="DEFAULT_VEHTYPE" speedFactor="0.91" vaporized=""/>
    <tripinfo id="19" depart="69.00" departLane="668307639#0_0" departPos="5.10" departSpeed="0.00" departDelay="0.60" arrival="133.00" arrivalLane="668307633#3_0" arrivalPos="112.63" arrivalSpeed="18.73" duration="64.00" routeLength="625.14" waitingTime="9.00" waitingCount="1" stopTime="0.00" timeLoss="27.57" rerouteNo="0" devices="tripinfo_19" vType="DEFAULT_VEHTYPE" speedFactor="1.12" vaporized=""/>
    <tripinfo id="23" depart="83.00" departLane="-778823268#1_0" departPos="5.10" departSpeed="0.00" departDelay="0.20" arrival="133.00" arrivalLane="119238385#0_0" arrivalPos="144.87" arrivalSpeed="12.01" duration="50.00" routeLength="522.97" waitingTime="0.00" waitingCount="0" stopTime="0.00" timeLoss="6.16" rerouteNo="0" devices="tripinfo_23" vType="DEFAULT_VEHTYPE" speedFactor="0.89" vaporized=""/>
    <tripinfo id="25" depart="90.00" departLane="232079775#2_0" departPos="5.10" departSpeed="0.00" departDelay="0.00" arrival="136.00" arrivalLane="119238385#0_0" arrivalPos="144.87" arrivalSpeed="12.85" duration="46.00" routeLength="347.78" waitingTime="8.00" waitingCount="1" stopTime="0.00" timeLoss="19.03" rerouteNo="0" devices="tripinfo_25" vType="DEFAULT_VEHTYPE" speedFactor="0.95" vaporized=""/>
    <tripinfo id="29" depart="105.00" departLane="-778823268#1_0" departPos="5.10" departSpeed="0.00" departDelay="0.60" arrival="148.00" arrivalLane="44499684#3_0" arrivalPos="84.04" arrivalSpeed="14.39" duration="43.00" routeLength="453.00" waitingTime="0.00" waitingCount="0" stopTime="0.00" timeLoss="6.73" rerouteNo="0" devices="tripinfo_29" vType="DEFAULT_VEHTYPE" speedFactor="0.88" vaporized=""/>
    <tripinfo id="34" depart="123.00" departLane="232079775#2_0" departPos="5.10" departSpeed="0.00" departDelay="0.60" arrival="153.00" arrivalLane="119238385#0_0" arrivalPos="144.87" arrivalSpeed="15.08" duration="30.00" routeLength="347.78" waitingTime="0.00" waitingCount="0" stopTime="0.00" timeLoss="7.57" rerouteNo="0" devices="tripinfo_34" vType="DEFAULT_VEHTYPE" speedFactor="1.15" vaporized=""/>
    <tripinfo id="32" depart="116.00" departLane="668307639#0_0" departPos="5.10" departSpeed="0.00" departDelay="0.80" arrival="160.00" arrivalLane="778823268#0_0" arrivalPos="238.22" arrivalSpeed="13.73" duration="44.00" routeLength="503.37" waitingTime="0.00" waitingCount="0" stopTime="0.00" timeLoss="9.99" rerouteNo="0" devices="tripinfo_32" vType="DEFAULT_VEHTYPE" speedFactor="1.02" vaporized=""/>
    <tripinfo id="35" depart="126.00" departLane="-778823268#1_0" departPos="5.10" departSpeed="0.00" departDelay="0.00" arrival="160.00" arrivalLane="E1_0" arrivalPos="103.00" arrivalSpeed="12.07" duration="34.00" routeLength="369.88" waitingTime="0.00" waitingCount="0" stopTime="0.00" timeLoss="5.51" rerouteNo="0" devices="tripinfo_35" vType="DEFAULT_VEHTYPE" speedFactor="0.96" vaporized=""/>
    <tripinfo id="30" depart="108.00" departLane="668307639#0_0" departPos="5.10" departSpeed="0.00" departDelay="0.00" arrival="163.00" arrivalLane="668307633#3_1" arrivalPos="112.63" arrivalSpeed="14.18" duration="55.00" routeLength="623.09" waitingTime="0.00" waitingCount="0" stopTime="0.00" timeLoss="9.00" rerouteNo="0" devices="tripinfo_30" vType="DEFAULT_VEHTYPE" speedFactor="0.87" vaporized=""/>
    <tripinfo id="33" depart="119.00" departLane="-778823268#1_0" departPos="5.10" departSpeed="0.00" departDelay="0.20" arrival="164.00" arrivalLane="119238380#0_0" arrivalPos="135.86" arrivalSpeed="11.60" duration="45.00" routeLength="461.48" waitingTime="0.00" waitingCount="0" stopTime="0.00" timeLoss="5.17" rerouteNo="0" devices="tripinfo_33" vType="DEFAULT_VEHTYPE" speedFactor="0.84" vaporized=""/>
    <tripinfo id="39" depart="141.00" departLane="232079775#2_0" departPos="5.10" departSpeed="0.00" departDelay="0.60" arrival="171.00" arrivalLane="119238385#0_0" arrivalPos="144.87" arrivalSpeed="14.99" duration="30.00" routeLength="347.78" waitingTime="0.00" waitingCount="0" stopTime="0.00" timeLoss="7.50" rerouteNo="0" devices="tripinfo_39" vType="DEFAULT_VEHTYPE" speedFactor="1.13" vaporized=""/>
    <tripinfo id="36" depart="130.00" departLane="668307639#0_0" departPos="5.10" departSpeed="0.00" departDelay="0.40" arrival="183.00" arrivalLane="119238385#0_0" arrivalPos="144.87" arrivalSpeed="12.59" duration="53.00" routeLength="556.93" waitingTime="0.00" waitingCount="0" stopTime="0.00" timeLoss="10.16" rerouteNo="0" devices="tripinfo_36" vType="DEFAULT_VEHTYPE" speedFactor="0.92" vaporized=""/>
    <tripinfo id="42" depart="152.00" departLane="232079775#2_0" departPos="5.10" departSpeed="0.00" departDelay="0.80" arrival="188.00" arrivalLane="119238385#0_0" arrivalPos="144.87" arrivalSpeed="10.80" duration="36.00" routeLength="347.78" waitingTime="0.00" waitingCount="0" stopTime="0.00" timeLoss="5.80" rerouteNo="0" devices="tripinfo_42" vType="DEFAULT_VEHTYPE" speedFactor="0.84" vaporized=""/>
    <tripinfo id="38" depart="137.00" departLane="668307639#0_0" departPos="5.10" departSpeed="0.00" departDelay="0.20" arrival="193.00" arrivalLane="44499684#3_0" arrivalPos="84.04" arrivalSpeed="16.72" duration="56.00" routeLength="485.82" waitingTime="16.00" waitingCount="1" stopTime="0.00" timeLoss="26.39" rerouteNo="0" devices="tripinfo_38" vType="DEFAULT_VEHTYPE" speedFactor="1.01" vaporized=""/>
    <tripinfo id="20" depart="72.00" departLane="448266581#0_0" departPos="5.10" departSpeed="0.00" departDelay="0.00" arrival="195.00" arrivalLane="119238380#0_0" arrivalPos="135.86" arrivalSpeed="14.00" duration="123.00" routeLength="354.71" waitingTime="89.00" waitingCount="1" stopTime="0.00" timeLoss="99.93" rerouteNo="0" devices="tripinfo_20" vType="DEFAULT_VEHTYPE" speedFactor="1.07" vaporized=""/>
    <tripinfo id="27" depart="98.00" departLane="448266581#0_0" departPos="5.10" departSpeed="0.00" departDelay="0.80" arrival="204.00" arrivalLane="668307633#3_0" arrivalPos="112.63" arrivalSpeed="16.88" duration="106.00" routeLength="489.91" waitingTime="63.00" waitingCount="1" stopTime="0.00" timeLoss="76.26" rerouteNo="0" devices="tripinfo_27" vType="DEFAULT_VEHTYPE" speedFactor="1.02" vaporized=""/>
    <tripinfo id="46" depart="166.00" departLane="668307639#0_0" departPos="5.10" departSpeed="0.00" departDelay="0.40" arrival="206.00" arrivalLane="44499684#3_0" arrivalPos="84.04" arrivalSpeed="14.08" duration="40.00" routeLength="485.82" waitingTime="0.00" waitingCount="0" stopTime="0.00" timeLoss="4.74" rerouteNo="0" devices="tripinfo_46" vType="DEFAULT_VEHTYPE" speedFactor="0.86" vaporized=""/>
    <tripinfo id="47" depart="170.00" departLane="-778823268#1_0" departPos="5.10" departSpeed="0.00" departDelay="0.80" arrival="209.00" arrivalLane="44499684#3_0" arrivalPos="84.04" arrivalSpeed="16.32" duration="39.00" routeLength="453.00" waitingTime="0.00" waitingCount="0" stopTime="0.00" timeLoss="9.24" rerouteNo="0" devices="tripinfo_47" vType="DEFAULT_VEHTYPE" speedFactor="1.04" vaporized=""/>
    <tripinfo id="40" depart="144.00" departLane="448266581#0_0" departPos="5.10" departSpeed="0.00" departDelay="0.00" arrival="217.00" arrivalLane="119238385#0_0" arrivalPos="144.87" arrivalSpeed="11.75" duration="73.00" routeLength="413.39" waitingTime="22.00" waitingCount="2" stopTime="0.00" timeLoss="38.84" rerouteNo="0" devices="tripinfo_40" vType="DEFAULT_VEHTYPE" speedFactor="0.87" vaporized=""/>
    <tripinfo id="49" depart="177.00" departLane="668307639#0_0" departPos="5.10" departSpeed="0.00" departDelay="0.60" arrival="220.00" arrivalLane="E1_1" arrivalPos="103.00" arrivalSpeed="12.15" duration="43.00" routeLength="411.03" waitingTime="3.00" waitingCount="1" stopTime="0.00" timeLoss="13.18" rerouteNo="0" devices="tripinfo_49" vType="DEFAULT_VEHTYPE" speedFactor="0.94" vaporized=""/>
    <tripinfo id="52" depart="188.00" departLane="232079775#2_0" departPos="5.10" departSpeed="0.00" departDelay="0.80" arrival="225.00" arrivalLane="668307633#3_0" arrivalPos="112.63" arrivalSpeed="19.15" duration="37.00" routeLength="455.41" waitingTime="0.00" waitingCount="0" stopTime="0.00" timeLoss="10.83" rerouteNo="0" devices="tripinfo_52" vType="DEFAULT_VEHTYPE" speedFactor="1.17" vaporized=""/>
    <tripinfo id="51" depart="184.00" departLane="448266581#0_0" departPos="5.10" departSpeed="0.00" departDelay="0.40" arrival="228.00" arrivalLane="668307633#3_0" arrivalPos="112.63" arrivalSpeed="15.89" duration="44.00" routeLength="489.91" waitingTime="2.00" waitingCount="1" stopTime="0.00" timeLoss="14.08" rerouteNo="0" devices="tripinfo_51" vType="DEFAULT_VEHTYPE" speedFactor="0.99" vaporized=""/>
    <tripinfo id="53" depart="191.00" departLane="-778823268#1_0" departPos="5.10" departSpeed="0.00" departDelay="0.20" arrival="230.00" arrivalLane="44499684#3_0" arrivalPos="84.04" arrivalSpeed="16.66" duration="39.00" routeLength="453.00" waitingTime="0.00" waitingCount="0" stopTime="0.00" timeLoss="7.84" rerouteNo="0" devices="tripinfo_53" vType="DEFAULT_VEHTYPE" speedFactor="1.01" vaporized=""/>
    <tripinfo id="56" depart="202.00" departLane="448266581#0_0" departPos="5.10" departSpeed="0.00" departDelay="0.40" arrival="236.00" arrivalLane="119238385#0_0" arrivalPos="144.87" arrivalSpeed="14.41" duration="34.00" routeLength="416.20" waitingTime="0.00" waitingCount="0" stopTime="0.00" timeLoss="7.21" rerouteNo="0" devices="tripinfo_56" vType="DEFAULT_VEHTYPE" speedFactor="1.11" vaporized=""/>
    <tripinfo id="57" depart="206.00" departLane="668307639#0_0" departPos="5.10" departSpeed="0.00" departDelay="0.80" arrival="243.00" arrivalLane="E1_1" arrivalPos="103.00" arrivalSpeed="14.91" duration="37.00" routeLength="411.03" waitingTime="0.00" waitingCount="0" stopTime="0.00" timeLoss="11.38" rerouteNo="0" devices="tripinfo_57" vType="DEFAULT_VEHTYPE" speedFactor="1.09" vaporized=""/>
    <tripinfo id="59" depart="213.00" departLane="448266581#0_0" departPos="5.10" departSpeed="0.00" departDelay="0.60" arrival="244.00" arrivalLane="119238380#0_0" arrivalPos="135.86" arrivalSpeed="13.53" duration="31.00" routeLength="354.71" waitingTime="0.00" waitingCount="0" stopTime="0.00" timeLoss="5.88" rerouteNo="0" devices="tripinfo_59" vType="DEFAULT_VEHTYPE" speedFactor="1.01" vaporized=""/>
    <tripinfo id="58" depart="209.00" departLane="232079775#2_0" departPos="5.10" departSpeed="0.00" departDelay="0.20" arrival="249.00" arrivalLane="668307633#3_0" arrivalPos="112.63" arrivalSpeed="16.47" duration="40.00" routeLength="455.41" waitingTime="0.00" waitingCount="0" stopTime="0.00" timeLoss="8.37" rerouteNo="0" devices="tripinfo_58" vType="DEFAULT_VEHTYPE" speedFactor="0.99" vaporized=""/>
    <tripinfo id="26" depart="94.00" departLane="232079775#2_0" departPos="5.10" departSpeed="0.00" departDelay="0.40" arrival="271.00" arrivalLane="E1_1" arrivalPos="103.00" arrivalSpeed="13.18" duration="177.00" routeLength="382.90" waitingTime="127.00" waitingCount="3" stopTime="0.00" timeLoss="147.61" rerouteNo="0" devices="tripinfo_26" vType="DEFAULT_VEHTYPE" speedFactor="0.96" vaporized=""/>
    <tripinfo id="37" depart="134.00" departLane="448266581#0_0" departPos="5.10" departSpeed="0.00" departDelay="0.80" arrival="273.00" arrivalLane="44499684#3_2" arrivalPos="84.04" arrivalSpeed="16.06" duration="139.00" routeLength="508.78" waitingTime="86.00" waitingCount="2" stopTime="0.00" timeLoss="103.79" rerouteNo="0" devices="tripinfo_37" vType="DEFAULT_VEHTYPE" speedFactor="0.97" vaporized=""/>
    <tripinfo id="24" depart="87.00" departLane="448266581#0_0" departPos="5.10" departSpeed="0.00" departDelay="0.60" arrival="277.00" arrivalLane="44499684#3_2" arrivalPos="84.04" arrivalSpeed="16.69" duration="190.00" routeLength="510.14" waitingTime="134.00" waitingCount="3" stopTime="0.00" timeLoss="156.26" rerouteNo="0" devices="tripinfo_24" vType="DEFAULT_VEHTYPE" speedFactor="1.03" vaporized=""/>
    <tripinfo id="16" depart="58.00" departLane="448266581#0_0" departPos="5.10" departSpeed="0.00" departDelay="0.40" arrival="278.00" arrivalLane="E1_1" arrivalPos="103.00" arrivalSpeed="9.56" duration="220.00" routeLength="448.81" waitingTime="162.00" waitingCount="2" stopTime="0.00" timeLoss="178.10" rerouteNo="0" devices="tripinfo_16" vType="DEFAULT_VEHTYPE" speedFactor="0.78" vaporized=""/>
    <tripinfo id="41" depart="148.00" departLane="448266581#0_0" departPos="5.10" departSpeed="0.00" departDelay="0.40" arrival="279.00" arrivalLane="E1_1" arrivalPos="103.00" arrivalSpeed="11.67" duration="131.00" routeLength="448.81" waitingTime="72.00" waitingCount="3" stopTime="0.00" timeLoss="102.01" rerouteNo="0" devices="tripinfo_41" vType="DEFAULT_VEHTYPE" speedFactor="1.11" vaporized=""/>
    <tripinfo id="54" depart="195.00" departLane="232079775#2_0" departPos="5.10" departSpeed="0.00" departDelay="0.60" arrival="281.00" arrivalLane="E1_1" arrivalPos="103.00" arrivalSpeed="12.82" duration="86.00" routeLength="382.90" waitingTime="42.00" waitingCount="1" stopTime="0.00" timeLoss="56.75" rerouteNo="0" devices="tripinfo_54" vType="DEFAULT_VEHTYPE" speedFactor="0.97" vaporized=""/>
    <tripinfo id="28" depart="101.00" departLane="-778823268#1_0" departPos="5.10" departSpeed="0.00" departDelay="0.20" arrival="282.00" arrivalLane="778823268#0_0" arrivalPos="238.22" arrivalSpeed="14.49" duration="181.00" routeLength="655.26" waitingTime="119.00" waitingCount="2" stopTime="0.00" timeLoss="135.58" rerouteNo="0" devices="tripinfo_28" vType="DEFAULT_VEHTYPE" speedFactor="1.08" vaporized=""/>
    <tripinfo id="31" depart="112.00" departLane="448266581#0_0" departPos="5.10" departSpeed="0.00" departDelay="0.40" arrival="286.00" arrivalLane="778823268#0_0" arrivalPos="238.22" arrivalSpeed="13.24" duration="174.00" routeLength="547.37" waitingTime="112.00" waitingCount="4" stopTime="0.00" timeLoss="135.33" rerouteNo="0" devices="tripinfo_31" vType="DEFAULT_VEHTYPE" speedFactor="1.01" vaporized=""/>
    <tripinfo id="72" depart="260.00" departLane="232079775#2_0" departPos="5.10" departSpeed="0.00" departDelay="0.80" arrival="288.00" arrivalLane="119238385#0_0" arrivalPos="144.87" arrivalSpeed="14.92" duration="28.00" routeLength="347.78" waitingTime="0.00" waitingCount="0" stopTime="0.00" timeLoss="5.77" rerouteNo="0" devices="tripinfo_72" vType="DEFAULT_VEHTYPE" speedFactor="1.14" vaporized=""/>
    <tripinfo id="70" depart="252.00" departLane="232079775#2_0" departPos="5.10" departSpeed="0.00" departDelay="0.00" arrival="292.00" arrivalLane="668307633#3_0" arrivalPos="112.63" arrivalSpeed="15.98" duration="40.00" routeLength="455.41" waitingTime="0.00" waitingCount="0" stopTime="0.00" timeLoss="8.55" rerouteNo="0" devices="tripinfo_70" vType="DEFAULT_VEHTYPE" speedFactor="0.98" vaporized=""/>
    <tripinfo id="44" depart="159.00" departLane="-778823268#1_0" departPos="5.10" departSpeed="0.00" departDelay="0.60" arrival="293.00" arrivalLane="119238380#0_0" arrivalPos="135.86" arrivalSpeed="15.46" duration="134.00" routeLength="461.48" waitingTime="93.00" waitingCount="1" stopTime="0.00" timeLoss="103.84" rerouteNo="0" devices="tripinfo_44" vType="DEFAULT_VEHTYPE" speedFactor="1.11" vaporized=""/>
    <tripinfo id="11" depart="40.00" departLane="232079775#2_0" departPos="5.10" departSpeed="0.00" departDelay="0.40" arrival="298.00" arrivalLane="119238380#0_0" arrivalPos="135.86" arrivalSpeed="11.18" duration="258.00" routeLength="467.31" waitingTime="198.00" waitingCount="3" stopTime="0.00" timeLoss="219.58" rerouteNo="0" devices="tripinfo_11" vType="DEFAULT_VEHTYPE" speedFactor="0.89" vaporized=""/>
    <tripinfo id="63" depart="227.00" departLane="-778823268#1_0" departPos="5.10" departSpeed="0.00" departDelay="0.20" arrival="299.00" arrivalLane="E1_0" arrivalPos="103.00" arrivalSpeed="11.06" duration="72.00" routeLength="369.88" waitingTime="28.00" waitingCount="1" stopTime="0.00" timeLoss="37.98" rerouteNo="0" devices="tripinfo_63" vType="DEFAULT_VEHTYPE" speedFactor="0.82" vaporized=""/>
    <tripinfo id="55" depart="198.00" departLane="668307639#0_0" departPos="5.10" departSpeed="0.00" departDelay="0.00" arrival="301.00" arrivalLane="119238385#0_0" arrivalPos="144.87" arrivalSpeed="15.59" duration="103.00" routeLength="556.93" waitingTime="55.00" waitingCount="1" stopTime="0.00" timeLoss="70.75" rerouteNo="0" devices="tripinfo_55" vType="DEFAULT_VEHTYPE" speedFactor="1.20" vaporized=""/>
    <tripinfo id="64" depart="231.00" departLane="668307639#0_0" departPos="5.10" departSpeed="0.00" departDelay="0.60" arrival="301.00" arrivalLane="778823268#0_0" arrivalPos="238.22" arrivalSpeed="13.11" duration="70.00" routeLength="503.37" waitingTime="23.00" waitingCount="1" stopTime="0.00" timeLoss="35.41" rerouteNo="0" devices="tripinfo_64" vType="DEFAULT_VEHTYPE" speedFactor="1.01" vaporized=""/>
    <tripinfo id="67" depart="242.00" departLane="-778823268#1_0" departPos="5.10" departSpeed="0.00" departDelay="0.80" arrival="304.00" arrivalLane="44499684#3_0" arrivalPos="84.04" arrivalSpeed="16.75" duration="62.00" routeLength="453.00" waitingTime="18.00" waitingCount="1" stopTime="0.00" timeLoss="30.96" rerouteNo="0" devices="tripinfo_67" vType="DEFAULT_VEHTYPE" speedFactor="1.02" vaporized=""/>
    <tripinfo id="66" depart="238.00" departLane="668307639#0_0" departPos="5.10" departSpeed="0.00" departDelay="0.40" arrival="305.00" arrivalLane="E1_1" arrivalPos="103.00" arrivalSpeed="13.23" duration="67.00" routeLength="411.03" waitingTime="24.00" waitingCount="2" stopTime="0.00" timeLoss="39.77" rerouteNo="0" devices="tripinfo_66" vType="DEFAULT_VEHTYPE" speedFactor="1.04" vaporized=""/>
    <tripinfo id="62" depart="224.00" departLane="-778823268#1_0" departPos="5.10" departSpeed="0.00" departDelay="0.80" arrival="306.00" arrivalLane="119238385#0_0" arrivalPos="144.87" arrivalSpeed="13.21" duration="82.00" routeLength="522.97" waitingTime="33.00" waitingCount="1" stopTime="0.00" timeLoss="44.45" rerouteNo="0" devices="tripinfo_62" vType="DEFAULT_VEHTYPE" speedFactor="1.03" vaporized=""/>
    <tripinfo id="74" depart="267.00" departLane="-778823268#1_0" departPos="5.10" departSpeed="0.00" departDelay="0.60" arrival="312.00" arrivalLane="119238385#0_0" arrivalPos="144.87" arrivalSpeed="13.68" duration="45.00" routeLength="522.97" waitingTime="0.00" waitingCount="0" stopTime="0.00" timeLoss="7.73" rerouteNo="0" devices="tripinfo_74" vType="DEFAULT_VEHTYPE" speedFactor="1.04" vaporized=""/>
    <tripinfo id="68" depart="245.00" departLane="-778823268#1_0" departPos="5.10" departSpeed="0.00" departDelay="0.20" arrival="321.00" arrivalLane="778823268#0_1" arrivalPos="238.22" arrivalSpeed="16.35" duration="76.00" routeLength="655.26" waitingTime="16.00" waitingCount="1" stopTime="0.00" timeLoss="35.79" rerouteNo="0" devices="tripinfo_68" vType="DEFAULT_VEHTYPE" speedFactor="1.21" vaporized=""/>
    <tripinfo id="50" depart="180.00" departLane="-778823268#1_0" departPos="5.10" departSpeed="0.00" departDelay="0.00" arrival="324.00" arrivalLane="778823268#0_0" arrivalPos="238.22" arrivalSpeed="11.38" duration="144.00" routeLength="655.26" waitingTime="76.00" waitingCount="1" stopTime="0.00" timeLoss="89.83" rerouteNo="0" devices="tripinfo_50" vType="DEFAULT_VEHTYPE" speedFactor="0.90" vaporized=""/>
    <tripinfo id="81" depart="292.00" departLane="-778823268#1_0" departPos="5.10" departSpeed="0.00" departDelay="0.40" arrival="325.00" arrivalLane="E1_0" arrivalPos="103.00" arrivalSpeed="13.51" duration="33.00" routeLength="369.88" waitingTime="0.00" waitingCount="0" stopTime="0.00" timeLoss="5.25" rerouteNo="0" devices="tripinfo_81" vType="DEFAULT_VEHTYPE" speedFactor="1.00" vaporized=""/>
    <tripinfo id="76" depart="274.00" departLane="232079775#2_0" departPos="5.10" departSpeed="0.00" departDelay="0.40" arrival="329.00" arrivalLane="668307633#3_0" arrivalPos="112.63" arrivalSpeed="14.25" duration="55.00" routeLength="455.41" waitingTime="8.00" waitingCount="1" stopTime="0.00" timeLoss="20.00" rerouteNo="0" devices="tripinfo_76" vType="DEFAULT_VEHTYPE" speedFactor="0.88" vaporized=""/>
    <tripinfo id="78" depart="281.00" departLane="232079775#2_0" departPos="5.10" departSpeed="0.00" departDelay="0.20" arrival="329.00" arrivalLane="668307633#3_1" arrivalPos="112.63" arrivalSpeed="15.59" duration="48.00" routeLength="460.73" waitingTime="3.00" waitingCount="1" stopTime="0.00" timeLoss="15.29" rerouteNo="0" devices="tripinfo_78" vType="DEFAULT_VEHTYPE" speedFactor="0.96" vaporized=""/>