<?xml version="1.0" encoding="UTF-8"?>

<!-- generated on 2024-08-31 19:30:53 by Eclipse SUMO sumo Version 1.20.0
<configuration xmlns:xsi="http://www.w3.org/2001/XMLSchema-instance" xsi:noNamespaceSchemaLocation="http://sumo.dlr.de/xsd/sumoConfiguration.xsd">

    <input>
        <net-file value="c:\self\School\Master\Disertation\code\RESCO\resco_benchmark\environments/romana/osm.net.xml.gz"/>
        <route-files value="c:\self\School\Master\Disertation\code\RESCO\resco_benchmark\environments/romana/osm.passenger.trips.xml"/>
        <additional-files value="c:\self\School\Master\Disertation\code\RESCO\resco_benchmark\environments/romana/osm.poly.xml.gz"/>
    </input>

    <output>
        <tripinfo-output value="C:\self\School\Master\Disertation\code\RESCO\results\IDQN-tr0-romana-0-drq-wait\tripinfo_87.xml"/>
        <tripinfo-output.write-unfinished value="true"/>
    </output>

    <processing>
        <ignore-route-errors value="true"/>
        <time-to-teleport value="-1"/>
    </processing>

    <routing>
        <device.rerouting.adaptation-steps value="18"/>
        <device.rerouting.adaptation-interval value="10"/>
    </routing>

    <report>
        <verbose value="true"/>
        <no-warnings value="True"/>
        <duration-log.statistics value="true"/>
        <no-step-log value="True"/>
    </report>

    <traci_server>
        <remote-port value="59410"/>
    </traci_server>

    <random_number>
        <random value="true"/>
    </random_number>

    <gui_only>
        <gui-settings-file value="c:\self\School\Master\Disertation\code\RESCO\resco_benchmark\environments/romana/osm.view.xml"/>
    </gui_only>

</configuration>
-->

<tripinfos xmlns:xsi="http://www.w3.org/2001/XMLSchema-instance" xsi:noNamespaceSchemaLocation="http://sumo.dlr.de/xsd/tripinfo_file.xsd">
    <tripinfo id="1" depart="4.00" departLane="232079775#2_0" departPos="5.10" departSpeed="0.00" departDelay="0.40" arrival="34.00" arrivalLane="119238385#0_0" arrivalPos="144.87" arrivalSpeed="15.45" duration="30.00" routeLength="347.78" waitingTime="0.00" waitingCount="0" stopTime="0.00" timeLoss="7.65" rerouteNo="0" devices="tripinfo_1" vType="DEFAULT_VEHTYPE" speedFactor="1.16" vaporized=""/>
    <tripinfo id="0" depart="0.00" departLane="448266581#0_0" departPos="5.10" departSpeed="0.00" departDelay="0.00" arrival="46.00" arrivalLane="119238380#0_0" arrivalPos="135.86" arrivalSpeed="12.75" duration="46.00" routeLength="354.71" waitingTime="11.00" waitingCount="1" stopTime="0.00" timeLoss="20.80" rerouteNo="0" devices="tripinfo_0" vType="DEFAULT_VEHTYPE" speedFactor="0.98" vaporized=""/>
    <tripinfo id="2" depart="8.00" departLane="448266581#0_0" departPos="5.10" departSpeed="0.00" departDelay="0.80" arrival="70.00" arrivalLane="778823268#0_1" arrivalPos="238.22" arrivalSpeed="16.76" duration="62.00" routeLength="551.41" waitingTime="8.00" waitingCount="2" stopTime="0.00" timeLoss="29.44" rerouteNo="0" devices="tripinfo_2" vType="DEFAULT_VEHTYPE" speedFactor="1.21" vaporized=""/>
    <tripinfo id="3" depart="11.00" departLane="668307639#0_0" departPos="5.10" departSpeed="0.00" departDelay="0.20" arrival="73.00" arrivalLane="119238380#0_0" arrivalPos="135.86" arrivalSpeed="10.78" duration="62.00" routeLength="495.44" waitingTime="5.00" waitingCount="1" stopTime="0.00" timeLoss="18.72" rerouteNo="0" devices="tripinfo_3" vType="DEFAULT_VEHTYPE" speedFactor="0.78" vaporized=""/>
    <tripinfo id="7" depart="26.00" departLane="448266581#0_0" departPos="5.10" departSpeed="0.00" departDelay="0.80" arrival="74.00" arrivalLane="668307633#3_0" arrivalPos="112.63" arrivalSpeed="14.35" duration="48.00" routeLength="489.91" waitingTime="4.00" waitingCount="1" stopTime="0.00" timeLoss="15.74" rerouteNo="0" devices="tripinfo_7" vType="DEFAULT_VEHTYPE" speedFactor="0.93" vaporized=""/>
    <tripinfo id="5" depart="18.00" departLane="-778823268#1_0" departPos="5.10" departSpeed="0.00" departDelay="0.00" arrival="75.00" arrivalLane="668307633#3_1" arrivalPos="112.63" arrivalSpeed="17.56" duration="57.00" routeLength="595.69" waitingTime="8.00" waitingCount="1" stopTime="0.00" timeLoss="20.01" rerouteNo="0" devices="tripinfo_5" vType="DEFAULT_VEHTYPE" speedFactor="1.09" vaporized=""/>
    <tripinfo id="9" depart="33.00" departLane="668307639#0_0" departPos="5.10" departSpeed="0.00" departDelay="0.60" arrival="75.00" arrivalLane="119238380#0_0" arrivalPos="135.86" arrivalSpeed="13.38" duration="42.00" routeLength="495.44" waitingTime="0.00" waitingCount="0" stopTime="0.00" timeLoss="8.52" rerouteNo="0" devices="tripinfo_9" vType="DEFAULT_VEHTYPE" speedFactor="1.01" vaporized=""/>
    <tripinfo id="6" depart="22.00" departLane="-778823268#1_0" departPos="5.10" departSpeed="0.00" departDelay="0.40" arrival="79.00" arrivalLane="119238385#0_0" arrivalPos="144.87" arrivalSpeed="12.35" duration="57.00" routeLength="522.97" waitingTime="2.00" waitingCount="1" stopTime="0.00" timeLoss="15.04" rerouteNo="0" devices="tripinfo_6" vType="DEFAULT_VEHTYPE" speedFactor="0.93" vaporized=""/>
    <tripinfo id="10" depart="36.00" departLane="668307639#0_0" departPos="5.10" departSpeed="0.00" departDelay="0.00" arrival="79.00" arrivalLane="778823268#0_0" arrivalPos="238.22" arrivalSpeed="13.32" duration="43.00" routeLength="503.37" waitingTime="0.00" waitingCount="0" stopTime="0.00" timeLoss="9.78" rerouteNo="0" devices="tripinfo_10" vType="DEFAULT_VEHTYPE" speedFactor="1.04" vaporized=""/>
    <tripinfo id="8" depart="29.00" departLane="-778823268#1_0" departPos="5.10" departSpeed="0.00" departDelay="0.20" arrival="83.00" arrivalLane="668307633#3_1" arrivalPos="112.63" arrivalSpeed="13.64" duration="54.00" routeLength="595.69" waitingTime="0.00" waitingCount="0" stopTime="0.00" timeLoss="6.34" rerouteNo="0" devices="tripinfo_8" vType="DEFAULT_VEHTYPE" speedFactor="0.85" vaporized=""/>
    <tripinfo id="12" depart="44.00" departLane="668307639#0_0" departPos="5.10" departSpeed="0.00" departDelay="0.80" arrival="96.00" arrivalLane="44499684#3_0" arrivalPos="84.04" arrivalSpeed="13.24" duration="52.00" routeLength="485.82" waitingTime="4.00" waitingCount="1" stopTime="0.00" timeLoss="14.78" rerouteNo="0" devices="tripinfo_12" vType="DEFAULT_VEHTYPE" speedFactor="0.81" vaporized=""/>
    <tripinfo id="15" depart="54.00" departLane="668307639#0_0" departPos="5.10" departSpeed="0.00" departDelay="0.00" arrival="98.00" arrivalLane="778823268#0_0" arrivalPos="238.22" arrivalSpeed="12.20" duration="44.00" routeLength="503.37" waitingTime="0.00" waitingCount="0" stopTime="0.00" timeLoss="7.31" rerouteNo="0" devices="tripinfo_15" vType="DEFAULT_VEHTYPE" speedFactor="0.95" vaporized=""/>
    <tripinfo id="17" depart="62.00" departLane="232079775#2_0" departPos="5.10" departSpeed="0.00" departDelay="0.80" arrival="104.00" arrivalLane="668307633#3_0" arrivalPos="112.63" arrivalSpeed="14.58" duration="42.00" routeLength="455.41" waitingTime="0.00" waitingCount="0" stopTime="0.00" timeLoss="8.85" rerouteNo="0" devices="tripinfo_17" vType="DEFAULT_VEHTYPE" speedFactor="0.93" vaporized=""/>
    <tripinfo id="16" depart="58.00" departLane="448266581#0_0" departPos="5.10" departSpeed="0.00" departDelay="0.40" arrival="105.00" arrivalLane="E1_1" arrivalPos="103.00" arrivalSpeed="12.74" duration="47.00" routeLength="446.50" waitingTime="3.00" waitingCount="1" stopTime="0.00" timeLoss="15.13" rerouteNo="0" devices="tripinfo_16" vType="DEFAULT_VEHTYPE" speedFactor="1.00" vaporized=""/>
    <tripinfo id="20" depart="72.00" departLane="448266581#0_0" departPos="5.10" departSpeed="0.00" departDelay="0.00" arrival="107.00" arrivalLane="119238380#0_0" arrivalPos="135.86" arrivalSpeed="11.77" duration="35.00" routeLength="354.71" waitingTime="0.00" waitingCount="0" stopTime="0.00" timeLoss="5.89" rerouteNo="0" devices="tripinfo_20" vType="DEFAULT_VEHTYPE" speedFactor="0.86" vaporized=""/>
    <tripinfo id="13" depart="47.00" departLane="-778823268#1_0" departPos="5.10" departSpeed="0.00" departDelay="0.20" arrival="124.00" arrivalLane="119238380#0_0" arrivalPos="135.86" arrivalSpeed="9.58" duration="77.00" routeLength="461.48" waitingTime="23.00" waitingCount="1" stopTime="0.00" timeLoss="31.88" rerouteNo="0" devices="tripinfo_13" vType="DEFAULT_VEHTYPE" speedFactor="0.75" vaporized=""/>
    <tripinfo id="25" depart="90.00" departLane="232079775#2_0" departPos="5.10" departSpeed="0.00" departDelay="0.00" arrival="124.00" arrivalLane="119238385#0_0" arrivalPos="144.87" arrivalSpeed="14.88" duration="34.00" routeLength="347.78" waitingTime="0.00" waitingCount="0" stopTime="0.00" timeLoss="10.75" rerouteNo="0" devices="tripinfo_25" vType="DEFAULT_VEHTYPE" speedFactor="1.10" vaporized=""/>
    <tripinfo id="11" depart="40.00" departLane="232079775#2_0" departPos="5.10" departSpeed="0.00" departDelay="0.40" arrival="126.00" arrivalLane="119238380#0_0" arrivalPos="135.86" arrivalSpeed="12.22" duration="86.00" routeLength="467.31" waitingTime="27.00" waitingCount="2" stopTime="0.00" timeLoss="47.40" rerouteNo="0" devices="tripinfo_11" vType="DEFAULT_VEHTYPE" speedFactor="0.89" vaporized=""/>
    <tripinfo id="14" depart="51.00" departLane="668307639#0_0" departPos="5.10" departSpeed="0.00" departDelay="0.60" arrival="127.00" arrivalLane="668307633#3_1" arrivalPos="112.63" arrivalSpeed="16.04" duration="76.00" routeLength="623.09" waitingTime="21.00" waitingCount="1" stopTime="0.00" timeLoss="35.15" rerouteNo="0" devices="tripinfo_14" vType="DEFAULT_VEHTYPE" speedFactor="0.99" vaporized=""/>
    <tripinfo id="4" depart="15.00" departLane="232079775#2_0" departPos="5.10" departSpeed="0.00" departDelay="0.60" arrival="128.00" arrivalLane="119238380#0_0" arrivalPos="135.86" arrivalSpeed="13.86" duration="113.00" routeLength="467.31" waitingTime="55.00" waitingCount="3" stopTime="0.00" timeLoss="79.19" rerouteNo="0" devices="tripinfo_4" vType="DEFAULT_VEHTYPE" speedFactor="1.02" vaporized=""/>
    <tripinfo id="21" depart="76.00" departLane="-778823268#1_0" departPos="5.10" departSpeed="0.00" departDelay="0.40" arrival="130.00" arrivalLane="119238385#0_0" arrivalPos="144.87" arrivalSpeed="14.88" duration="54.00" routeLength="522.97" waitingTime="8.00" waitingCount="1" stopTime="0.00" timeLoss="18.22" rerouteNo="0" devices="tripinfo_21" vType="DEFAULT_VEHTYPE" speedFactor="1.08" vaporized=""/>
    <tripinfo id="18" depart="65.00" departLane="668307639#0_0" departPos="5.10" departSpeed="0.00" departDelay="0.20" arrival="131.00" arrivalLane="668307633#3_1" arrivalPos="112.63" arrivalSpeed="17.68" duration="66.00" routeLength="623.09" waitingTime="18.00" waitingCount="1" stopTime="0.00" timeLoss="29.69" rerouteNo="0" devices="tripinfo_18" vType="DEFAULT_VEHTYPE" speedFactor="1.11" vaporized=""/>
    <tripinfo id="22" depart="80.00" departLane="-778823268#1_0" departPos="5.10" departSpeed="0.00" departDelay="0.80" arrival="134.00" arrivalLane="119238385#0_0" arrivalPos="144.87" arrivalSpeed="12.56" duration="54.00" routeLength="522.97" waitingTime="4.00" waitingCount="1" stopTime="0.00" timeLoss="14.58" rerouteNo="0" devices="tripinfo_22" vType="DEFAULT_VEHTYPE" speedFactor="0.98" vaporized=""/>
    <tripinfo id="23" depart="83.00" departLane="-778823268#1_0" departPos="5.10" departSpeed="0.00" departDelay="0.20" arrival="137.00" arrivalLane="119238385#0_0" arrivalPos="144.87" arrivalSpeed="12.25" duration="54.00" routeLength="522.97" waitingTime="2.00" waitingCount="1" stopTime="0.00" timeLoss="13.51" rerouteNo="0" devices="tripinfo_23" vType="DEFAULT_VEHTYPE" speedFactor="0.96" vaporized=""/>
    <tripinfo id="19" depart="69.00" departLane="668307639#0_0" departPos="5.10" departSpeed="0.00" departDelay="0.60" arrival="138.00" arrivalLane="668307633#3_1" arrivalPos="112.63" arrivalSpeed="16.67" duration="69.00" routeLength="623.09" waitingTime="15.00" waitingCount="2" stopTime="0.00" timeLoss="30.06" rerouteNo="0" devices="tripinfo_19" vType="DEFAULT_VEHTYPE" speedFactor="1.04" vaporized=""/>
    <tripinfo id="29" depart="105.00" departLane="-778823268#1_0" departPos="5.10" departSpeed="0.00" departDelay="0.60" arrival="146.00" arrivalLane="44499684#3_0" arrivalPos="84.04" arrivalSpeed="14.74" duration="41.00" routeLength="453.00" waitingTime="0.00" waitingCount="0" stopTime="0.00" timeLoss="7.92" rerouteNo="0" devices="tripinfo_29" vType="DEFAULT_VEHTYPE" speedFactor="0.96" vaporized=""/>
    <tripinfo id="35" depart="126.00" departLane="-778823268#1_0" departPos="5.10" departSpeed="0.00" departDelay="0.00" arrival="158.00" arrivalLane="E1_0" arrivalPos="103.00" arrivalSpeed="13.36" duration="32.00" routeLength="369.88" waitingTime="0.00" waitingCount="0" stopTime="0.00" timeLoss="5.69" rerouteNo="0" devices="tripinfo_35" vType="DEFAULT_VEHTYPE" speedFactor="1.05" vaporized=""/>
    <tripinfo id="34" depart="123.00" departLane="232079775#2_0" departPos="5.10" departSpeed="0.00" departDelay="0.60" arrival="160.00" arrivalLane="119238385#0_0" arrivalPos="144.87" arrivalSpeed="13.78" duration="37.00" routeLength="347.78" waitingTime="1.00" waitingCount="1" stopTime="0.00" timeLoss="11.53" rerouteNo="0" devices="tripinfo_34" vType="DEFAULT_VEHTYPE" speedFactor="1.01" vaporized=""/>
    <tripinfo id="32" depart="116.00" departLane="668307639#0_0" departPos="5.10" departSpeed="0.00" departDelay="0.80" arrival="162.00" arrivalLane="778823268#0_0" arrivalPos="238.22" arrivalSpeed="11.77" duration="46.00" routeLength="503.37" waitingTime="0.00" waitingCount="0" stopTime="0.00" timeLoss="8.03" rerouteNo="0" devices="tripinfo_32" vType="DEFAULT_VEHTYPE" speedFactor="0.93" vaporized=""/>
    <tripinfo id="26" depart="94.00" departLane="232079775#2_0" departPos="5.10" departSpeed="0.00" departDelay="0.40" arrival="167.00" arrivalLane="E1_1" arrivalPos="103.00" arrivalSpeed="12.48" duration="73.00" routeLength="382.90" waitingTime="28.00" waitingCount="1" stopTime="0.00" timeLoss="42.17" rerouteNo="0" devices="tripinfo_26" vType="DEFAULT_VEHTYPE" speedFactor="0.92" vaporized=""/>
    <tripinfo id="33" depart="119.00" departLane="-778823268#1_0" departPos="5.10" departSpeed="0.00" departDelay="0.20" arrival="170.00" arrivalLane="119238380#0_0" arrivalPos="135.86" arrivalSpeed="12.84" duration="51.00" routeLength="461.48" waitingTime="6.00" waitingCount="1" stopTime="0.00" timeLoss="16.31" rerouteNo="0" devices="tripinfo_33" vType="DEFAULT_VEHTYPE" speedFactor="0.99" vaporized=""/>
    <tripinfo id="39" depart="141.00" departLane="232079775#2_0" departPos="5.10" departSpeed="0.00" departDelay="0.60" arrival="173.00" arrivalLane="119238385#0_0" arrivalPos="144.87" arrivalSpeed="11.84" duration="32.00" routeLength="347.78" waitingTime="0.00" waitingCount="0" stopTime="0.00" timeLoss="4.37" rerouteNo="0" devices="tripinfo_39" vType="DEFAULT_VEHTYPE" speedFactor="0.91" vaporized=""/>
    <tripinfo id="27" depart="98.00" departLane="448266581#0_0" departPos="5.10" departSpeed="0.00" departDelay="0.80" arrival="174.00" arrivalLane="668307633#3_0" arrivalPos="112.63" arrivalSpeed="14.85" duration="76.00" routeLength="489.91" waitingTime="28.00" waitingCount="2" stopTime="0.00" timeLoss="43.79" rerouteNo="0" devices="tripinfo_27" vType="DEFAULT_VEHTYPE" speedFactor="0.93" vaporized=""/>
    <tripinfo id="30" depart="108.00" departLane="668307639#0_0" departPos="5.10" departSpeed="0.00" departDelay="0.00" arrival="177.00" arrivalLane="668307633#3_1" arrivalPos="112.63" arrivalSpeed="15.29" duration="69.00" routeLength="623.09" waitingTime="14.00" waitingCount="1" stopTime="0.00" timeLoss="26.78" rerouteNo="0" devices="tripinfo_30" vType="DEFAULT_VEHTYPE" speedFactor="0.95" vaporized=""/>
    <tripinfo id="36" depart="130.00" departLane="668307639#0_0" departPos="5.10" departSpeed="0.00" departDelay="0.40" arrival="185.00" arrivalLane="119238385#0_0" arrivalPos="144.87" arrivalSpeed="14.51" duration="55.00" routeLength="556.93" waitingTime="5.00" waitingCount="2" stopTime="0.00" timeLoss="18.33" rerouteNo="0" devices="tripinfo_36" vType="DEFAULT_VEHTYPE" speedFactor="1.06" vaporized=""/>
    <tripinfo id="42" depart="152.00" departLane="232079775#2_0" departPos="5.10" departSpeed="0.00" departDelay="0.80" arrival="190.00" arrivalLane="119238385#0_0" arrivalPos="144.87" arrivalSpeed="12.87" duration="38.00" routeLength="347.78" waitingTime="2.00" waitingCount="1" stopTime="0.00" timeLoss="12.14" rerouteNo="0" devices="tripinfo_42" vType="DEFAULT_VEHTYPE" speedFactor="1.00" vaporized=""/>
    <tripinfo id="24" depart="87.00" departLane="448266581#0_0" departPos="5.10" departSpeed="0.00" departDelay="0.60" arrival="193.00" arrivalLane="44499684#3_2" arrivalPos="84.04" arrivalSpeed="16.76" duration="106.00" routeLength="512.41" waitingTime="53.00" waitingCount="2" stopTime="0.00" timeLoss="73.71" rerouteNo="0" devices="tripinfo_24" vType="DEFAULT_VEHTYPE" speedFactor="1.08" vaporized=""/>
    <tripinfo id="38" depart="137.00" departLane="668307639#0_0" departPos="5.10" departSpeed="0.00" departDelay="0.20" arrival="194.00" arrivalLane="44499684#3_0" arrivalPos="84.04" arrivalSpeed="14.75" duration="57.00" routeLength="485.82" waitingTime="16.00" waitingCount="1" stopTime="0.00" timeLoss="25.04" rerouteNo="0" devices="tripinfo_38" vType="DEFAULT_VEHTYPE" speedFactor="0.95" vaporized=""/>
    <tripinfo id="37" depart="134.00" departLane="448266581#0_0" departPos="5.10" departSpeed="0.00" departDelay="0.80" arrival="196.00" arrivalLane="44499684#3_2" arrivalPos="84.04" arrivalSpeed="16.61" duration="62.00" routeLength="508.78" waitingTime="17.00" waitingCount="1" stopTime="0.00" timeLoss="29.96" rerouteNo="0" devices="tripinfo_37" vType="DEFAULT_VEHTYPE" speedFactor="1.07" vaporized=""/>
    <tripinfo id="40" depart="144.00" departLane="448266581#0_0" departPos="5.10" departSpeed="0.00" departDelay="0.00" arrival="200.00" arrivalLane="119238385#0_0" arrivalPos="144.87" arrivalSpeed="12.99" duration="56.00" routeLength="416.20" waitingTime="15.00" waitingCount="1" stopTime="0.00" timeLoss="27.11" rerouteNo="0" devices="tripinfo_40" vType="DEFAULT_VEHTYPE" speedFactor="1.00" vaporized=""/>
    <tripinfo id="28" depart="101.00" departLane="-778823268#1_0" departPos="5.10" departSpeed="0.00" departDelay="0.20" arrival="202.00" arrivalLane="778823268#0_0" arrivalPos="238.22" arrivalSpeed="15.03" duration="101.00" routeLength="655.26" waitingTime="39.00" waitingCount="2" stopTime="0.00" timeLoss="55.89" rerouteNo="0" devices="tripinfo_28" vType="DEFAULT_VEHTYPE" speedFactor="1.09" vaporized=""/>
    <tripinfo id="31" depart="112.00" departLane="448266581#0_0" departPos="5.10" departSpeed="0.00" departDelay="0.40" arrival="204.00" arrivalLane="778823268#0_1" arrivalPos="238.22" arrivalSpeed="13.21" duration="92.00" routeLength="551.41" waitingTime="25.00" waitingCount="2" stopTime="0.00" timeLoss="52.35" rerouteNo="0" devices="tripinfo_31" vType="DEFAULT_VEHTYPE" speedFactor="1.00" vaporized=""/>
    <tripinfo id="47" depart="170.00" departLane="-778823268#1_0" departPos="5.10" departSpeed="0.00" departDelay="0.80" arrival="207.00" arrivalLane="44499684#3_0" arrivalPos="84.04" arrivalSpeed="17.20" duration="37.00" routeLength="453.00" waitingTime="0.00" waitingCount="0" stopTime="0.00" timeLoss="7.63" rerouteNo="0" devices="tripinfo_47" vType="DEFAULT_VEHTYPE" speedFactor="1.06" vaporized=""/>
    <tripinfo id="41" depart="148.00" departLane="448266581#0_0" departPos="5.10" departSpeed="0.00" departDelay="0.40" arrival="208.00" arrivalLane="E1_1" arrivalPos="103.00" arrivalSpeed="13.39" duration="60.00" routeLength="446.50" waitingTime="14.00" waitingCount="1" stopTime="0.00" timeLoss="27.85" rerouteNo="0" devices="tripinfo_41" vType="DEFAULT_VEHTYPE" speedFactor="1.01" vaporized=""/>
    <tripinfo id="44" depart="159.00" departLane="-778823268#1_0" departPos="5.10" departSpeed="0.00" departDelay="0.60" arrival="219.00" arrivalLane="119238380#0_0" arrivalPos="135.86" arrivalSpeed="13.43" duration="60.00" routeLength="461.48" waitingTime="16.00" waitingCount="1" stopTime="0.00" timeLoss="27.04" rerouteNo="0" devices="tripinfo_44" vType="DEFAULT_VEHTYPE" speedFactor="1.03" vaporized=""/>
    <tripinfo id="51" depart="184.00" departLane="448266581#0_0" departPos="5.10" departSpeed="0.00" departDelay="0.40" arrival="220.00" arrivalLane="668307633#3_0" arrivalPos="112.63" arrivalSpeed="15.90" duration="36.00" routeLength="489.91" waitingTime="0.00" waitingCount="0" stopTime="0.00" timeLoss="6.12" rerouteNo="0" devices="tripinfo_51" vType="DEFAULT_VEHTYPE" speedFactor="0.99" vaporized=""/>
    <tripinfo id="45" depart="162.00" departLane="-778823268#1_0" departPos="5.10" departSpeed="0.00" departDelay="0.00" arrival="225.00" arrivalLane="668307633#3_1" arrivalPos="112.63" arrivalSpeed="18.44" duration="63.00" routeLength="595.69" waitingTime="15.00" waitingCount="1" stopTime="0.00" timeLoss="25.88" rerouteNo="0" devices="tripinfo_45" vType="DEFAULT_VEHTYPE" speedFactor="1.11" vaporized=""/>
    <tripinfo id="49" depart="177.00" departLane="668307639#0_0" departPos="5.10" departSpeed="0.00" departDelay="0.60" arrival="226.00" arrivalLane="E1_1" arrivalPos="103.00" arrivalSpeed="13.75" duration="49.00" routeLength="411.03" waitingTime="6.00" waitingCount="1" stopTime="0.00" timeLoss="20.77" rerouteNo="0" devices="tripinfo_49" vType="DEFAULT_VEHTYPE" speedFactor="1.00" vaporized=""/>
    <tripinfo id="52" depart="188.00" departLane="232079775#2_0" departPos="5.10" departSpeed="0.00" departDelay="0.80" arrival="229.00" arrivalLane="668307633#3_0" arrivalPos="112.63" arrivalSpeed="15.38" duration="41.00" routeLength="455.41" waitingTime="0.00" waitingCount="0" stopTime="0.00" timeLoss="8.82" rerouteNo="0" devices="tripinfo_52" vType="DEFAULT_VEHTYPE" speedFactor="0.95" vaporized=""/>
    <tripinfo id="53" depart="191.00" departLane="-778823268#1_0" departPos="5.10" departSpeed="0.00" departDelay="0.20" arrival="231.00" arrivalLane="44499684#3_0" arrivalPos="84.04" arrivalSpeed="15.36" duration="40.00" routeLength="453.00" waitingTime="0.00" waitingCount="0" stopTime="0.00" timeLoss="8.04" rerouteNo="0" devices="tripinfo_53" vType="DEFAULT_VEHTYPE" speedFactor="0.99" vaporized=""/>
    <tripinfo id="46" depart="166.00" departLane="668307639#0_0" departPos="5.10" departSpeed="0.00" departDelay="0.40" arrival="242.00" arrivalLane="44499684#3_0" arrivalPos="84.04" arrivalSpeed="18.98" duration="76.00" routeLength="485.82" waitingTime="31.00" waitingCount="2" stopTime="0.00" timeLoss="49.62" rerouteNo="0" devices="tripinfo_46" vType="DEFAULT_VEHTYPE" speedFactor="1.15" vaporized=""/>
    <tripinfo id="57" depart="206.00" departLane="668307639#0_0" departPos="5.10" departSpeed="0.00" departDelay="0.80" arrival="244.00" arrivalLane="E1_1" arrivalPos="103.00" arrivalSpeed="12.15" duration="38.00" routeLength="411.03" waitingTime="0.00" waitingCount="0" stopTime="0.00" timeLoss="7.49" rerouteNo="0" devices="tripinfo_57" vType="DEFAULT_VEHTYPE" speedFactor="0.92" vaporized=""/>
    <tripinfo id="43" depart="155.00" departLane="668307639#0_0" departPos="5.10" departSpeed="0.00" departDelay="0.20" arrival="247.00" arrivalLane="668307633#3_1" arrivalPos="112.63" arrivalSpeed="16.94" duration="92.00" routeLength="623.09" waitingTime="27.00" waitingCount="1" stopTime="0.00" timeLoss="52.62" rerouteNo="0" devices="tripinfo_43" vType="DEFAULT_VEHTYPE" speedFactor="1.02" vaporized=""/>
    <tripinfo id="58" depart="209.00" departLane="232079775#2_0" departPos="5.10" departSpeed="0.00" departDelay="0.20" arrival="247.00" arrivalLane="668307633#3_0" arrivalPos="112.63" arrivalSpeed="16.52" duration="38.00" routeLength="455.41" waitingTime="0.00" waitingCount="0" stopTime="0.00" timeLoss="7.79" rerouteNo="0" devices="tripinfo_58" vType="DEFAULT_VEHTYPE" speedFactor="1.00" vaporized=""/>
    <tripinfo id="59" depart="213.00" departLane="448266581#0_0" departPos="5.10" departSpeed="0.00" departDelay="0.60" arrival="248.00" arrivalLane="119238380#0_0" arrivalPos="135.86" arrivalSpeed="14.07" duration="35.00" routeLength="356.22" waitingTime="2.00" waitingCount="1" stopTime="0.00" timeLoss="11.08" rerouteNo="0" devices="tripinfo_59" vType="DEFAULT_VEHTYPE" speedFactor="1.04" vaporized=""/>
    <tripinfo id="48" depart="173.00" departLane="668307639#0_0" departPos="5.10" departSpeed="0.00" departDelay="0.20" arrival="249.00" arrivalLane="668307633#3_1" arrivalPos="112.63" arrivalSpeed="18.32" duration="76.00" routeLength="625.14" waitingTime="13.00" waitingCount="2" stopTime="0.00" timeLoss="40.09" rerouteNo="0" devices="tripinfo_48" vType="DEFAULT_VEHTYPE" speedFactor="1.14" vaporized=""/>
    <tripinfo id="56" depart="202.00" departLane="448266581#0_0" departPos="5.10" departSpeed="0.00" departDelay="0.40" arrival="251.00" arrivalLane="119238385#0_0" arrivalPos="144.87" arrivalSpeed="12.27" duration="49.00" routeLength="416.20" waitingTime="7.00" waitingCount="1" stopTime="0.00" timeLoss="18.52" rerouteNo="0" devices="tripinfo_56" vType="DEFAULT_VEHTYPE" speedFactor="0.96" vaporized=""/>
    <tripinfo id="63" depart="227.00" departLane="-778823268#1_0" departPos="5.10" departSpeed="0.00" departDelay="0.20" arrival="262.00" arrivalLane="E1_0" arrivalPos="103.00" arrivalSpeed="12.84" duration="35.00" routeLength="369.88" waitingTime="0.00" waitingCount="0" stopTime="0.00" timeLoss="5.67" rerouteNo="0" devices="tripinfo_63" vType="DEFAULT_VEHTYPE" speedFactor="0.94" vaporized=""/>
    <tripinfo id="54" depart="195.00" departLane="232079775#2_0" departPos="5.10" departSpeed="0.00" departDelay="0.60" arrival="275.00" arrivalLane="E1_1" arrivalPos="103.00" arrivalSpeed="13.53" duration="80.00" routeLength="382.90" waitingTime="32.00" waitingCount="3" stopTime="0.00" timeLoss="51.23" rerouteNo="0" devices="tripinfo_54" vType="DEFAULT_VEHTYPE" speedFactor="0.98" vaporized=""/>
    <tripinfo id="55" depart="198.00" departLane="668307639#0_0" departPos="5.10" departSpeed="0.00" departDelay="0.00" arrival="277.00" arrivalLane="119238385#0_0" arrivalPos="144.87" arrivalSpeed="12.76" duration="79.00" routeLength="556.93" waitingTime="25.00" waitingCount="1" stopTime="0.00" timeLoss="37.41" rerouteNo="0" devices="tripinfo_55" vType="DEFAULT_VEHTYPE" speedFactor="0.93" vaporized=""/>
    <tripinfo id="67" depart="242.00" departLane="-778823268#1_0" departPos="5.10" departSpeed="0.00" departDelay="0.80" arrival="277.00" arrivalLane="44499684#3_0" arrivalPos="84.04" arrivalSpeed="18.31" duration="35.00" routeLength="453.00" waitingTime="0.00" waitingCount="0" stopTime="0.00" timeLoss="8.07" rerouteNo="0" devices="tripinfo_67" vType="DEFAULT_VEHTYPE" speedFactor="1.17" vaporized=""/>
    <tripinfo id="50" depart="180.00" departLane="-778823268#1_0" departPos="5.10" departSpeed="0.00" departDelay="0.00" arrival="278.00" arrivalLane="778823268#0_0" arrivalPos="238.22" arrivalSpeed="14.47" duration="98.00" routeLength="655.26" waitingTime="34.00" waitingCount="1" stopTime="0.00" timeLoss="51.65" rerouteNo="0" devices="tripinfo_50" vType="DEFAULT_VEHTYPE" speedFactor="1.06" vaporized=""/>
    <tripinfo id="62" depart="224.00" departLane="-778823268#1_0" departPos="5.10" departSpeed="0.00" departDelay="0.80" arrival="279.00" arrivalLane="119238385#0_0" arrivalPos="144.87" arrivalSpeed="12.34" duration="55.00" routeLength="522.97" waitingTime="2.00" waitingCount="1" stopTime="0.00" timeLoss="14.19" rerouteNo="0" devices="tripinfo_62" vType="DEFAULT_VEHTYPE" speedFactor="0.96" vaporized=""/>
    <tripinfo id="65" depart="234.00" departLane="232079775#2_0" departPos="5.10" departSpeed="0.00" departDelay="0.00" arrival="291.00" arrivalLane="119238380#0_0" arrivalPos="135.86" arrivalSpeed="10.73" duration="57.00" routeLength="467.31" waitingTime="5.00" waitingCount="1" stopTime="0.00" timeLoss="16.47" rerouteNo="0" devices="tripinfo_65" vType="DEFAULT_VEHTYPE" speedFactor="0.86" vaporized=""/>
    <tripinfo id="70" depart="252.00" departLane="232079775#2_0" departPos="5.10" departSpeed="0.00" departDelay="0.00" arrival="291.00" arrivalLane="668307633#3_0" arrivalPos="112.63" arrivalSpeed="17.33" duration="39.00" routeLength="455.41" waitingTime="0.00" waitingCount="0" stopTime="0.00" timeLoss="10.00" rerouteNo="0" devices="tripinfo_70" vType="DEFAULT_VEHTYPE" speedFactor="1.05" vaporized=""/>
    <tripinfo id="72" depart="260.00" departLane="232079775#2_0" departPos="5.10" departSpeed="0.00" departDelay="0.80" arrival="293.00" arrivalLane="119238385#0_0" arrivalPos="144.87" arrivalSpeed="13.34" duration="33.00" routeLength="347.78" waitingTime="0.00" waitingCount="0" stopTime="0.00" timeLoss="6.41" rerouteNo="0" devices="tripinfo_72" vType="DEFAULT_VEHTYPE" speedFactor="0.96" vaporized=""/>
    <tripinfo id="60" depart="216.00" departLane="668307639#0_0" departPos="5.10" departSpeed="0.00" departDelay="0.00" arrival="295.00" arrivalLane="668307633#3_0" arrivalPos="112.63" arrivalSpeed="19.73" duration="79.00" routeLength="623.09" waitingTime="23.00" waitingCount="2" stopTime="0.00" timeLoss="47.01" rerouteNo="0" devices="tripinfo_60" vType="DEFAULT_VEHTYPE" speedFactor="1.25" vaporized=""/>
    <tripinfo id="61" depart="220.00" departLane="668307639#0_0" departPos="5.10" departSpeed="0.00" departDelay="0.40" arrival="297.00" arrivalLane="668307633#3_1" arrivalPos="112.63" arrivalSpeed="17.84" duration="77.00" routeLength="623.09" waitingTime="14.00" waitingCount="3" stopTime="0.00" timeLoss="39.62" rerouteNo="0" devices="tripinfo_61" vType="DEFAULT_VEHTYPE" speedFactor="1.10" vaporized=""/>
    <tripinfo id="64" depart="231.00" departLane="668307639#0_0" departPos="5.10" departSpeed="0.00" departDelay="0.60" arrival="300.00" arrivalLane="778823268#0_0" arrivalPos="238.22" arrivalSpeed="14.43" duration="69.00" routeLength="503.37" waitingTime="24.00" waitingCount="1" stopTime="0.00" timeLoss="36.34" rerouteNo="0" devices="tripinfo_64" vType="DEFAULT_VEHTYPE" speedFactor="1.05" vaporized=""/>