<?xml version="1.0" encoding="UTF-8"?>

<!-- generated on 2024-08-31 19:24:22 by Eclipse SUMO sumo Version 1.20.0
<configuration xmlns:xsi="http://www.w3.org/2001/XMLSchema-instance" xsi:noNamespaceSchemaLocation="http://sumo.dlr.de/xsd/sumoConfiguration.xsd">

    <input>
        <net-file value="c:\self\School\Master\Disertation\code\RESCO\resco_benchmark\environments/romana/osm.net.xml.gz"/>
        <route-files value="c:\self\School\Master\Disertation\code\RESCO\resco_benchmark\environments/romana/osm.passenger.trips.xml"/>
        <additional-files value="c:\self\School\Master\Disertation\code\RESCO\resco_benchmark\environments/romana/osm.poly.xml.gz"/>
    </input>

    <output>
        <tripinfo-output value="C:\self\School\Master\Disertation\code\RESCO\results\IDQN-tr0-romana-0-drq-wait\tripinfo_13.xml"/>
        <tripinfo-output.write-unfinished value="true"/>
    </output>

    <processing>
        <ignore-route-errors value="true"/>
        <time-to-teleport value="-1"/>
    </processing>

    <routing>
        <device.rerouting.adaptation-steps value="18"/>
        <device.rerouting.adaptation-interval value="10"/>
    </routing>

    <report>
        <verbose value="true"/>
        <no-warnings value="True"/>
        <duration-log.statistics value="true"/>
        <no-step-log value="True"/>
    </report>

    <traci_server>
        <remote-port value="58955"/>
    </traci_server>

    <random_number>
        <random value="true"/>
    </random_number>

    <gui_only>
        <gui-settings-file value="c:\self\School\Master\Disertation\code\RESCO\resco_benchmark\environments/romana/osm.view.xml"/>
    </gui_only>

</configuration>
-->

<tripinfos xmlns:xsi="http://www.w3.org/2001/XMLSchema-instance" xsi:noNamespaceSchemaLocation="http://sumo.dlr.de/xsd/tripinfo_file.xsd">
    <tripinfo id="0" depart="0.00" departLane="448266581#0_0" departPos="5.10" departSpeed="0.00" departDelay="0.00" arrival="30.00" arrivalLane="119238380#0_0" arrivalPos="135.86" arrivalSpeed="14.04" duration="30.00" routeLength="354.71" waitingTime="0.00" waitingCount="0" stopTime="0.00" timeLoss="6.45" rerouteNo="0" devices="tripinfo_0" vType="DEFAULT_VEHTYPE" speedFactor="1.03" vaporized=""/>
    <tripinfo id="1" depart="4.00" departLane="232079775#2_0" departPos="5.10" departSpeed="0.00" departDelay="0.40" arrival="37.00" arrivalLane="119238385#0_0" arrivalPos="144.87" arrivalSpeed="12.52" duration="33.00" routeLength="347.78" waitingTime="0.00" waitingCount="0" stopTime="0.00" timeLoss="5.68" rerouteNo="0" devices="tripinfo_1" vType="DEFAULT_VEHTYPE" speedFactor="0.92" vaporized=""/>
    <tripinfo id="7" depart="26.00" departLane="448266581#0_0" departPos="5.10" departSpeed="0.00" departDelay="0.80" arrival="60.00" arrivalLane="668307633#3_0" arrivalPos="112.63" arrivalSpeed="15.92" duration="34.00" routeLength="489.91" waitingTime="0.00" waitingCount="0" stopTime="0.00" timeLoss="4.90" rerouteNo="0" devices="tripinfo_7" vType="DEFAULT_VEHTYPE" speedFactor="1.02" vaporized=""/>
    <tripinfo id="2" depart="8.00" departLane="448266581#0_0" departPos="5.10" departSpeed="0.00" departDelay="0.80" arrival="78.00" arrivalLane="778823268#0_1" arrivalPos="238.22" arrivalSpeed="14.39" duration="70.00" routeLength="550.05" waitingTime="14.00" waitingCount="2" stopTime="0.00" timeLoss="31.66" rerouteNo="0" devices="tripinfo_2" vType="DEFAULT_VEHTYPE" speedFactor="1.04" vaporized=""/>
    <tripinfo id="12" depart="44.00" departLane="668307639#0_0" departPos="5.10" departSpeed="0.00" departDelay="0.80" arrival="95.00" arrivalLane="44499684#3_0" arrivalPos="84.04" arrivalSpeed="19.06" duration="51.00" routeLength="486.19" waitingTime="10.00" waitingCount="1" stopTime="0.00" timeLoss="25.99" rerouteNo="0" devices="tripinfo_12" vType="DEFAULT_VEHTYPE" speedFactor="1.20" vaporized=""/>
    <tripinfo id="17" depart="62.00" departLane="232079775#2_0" departPos="5.10" departSpeed="0.00" departDelay="0.80" arrival="100.00" arrivalLane="668307633#3_0" arrivalPos="112.63" arrivalSpeed="17.89" duration="38.00" routeLength="455.41" waitingTime="0.00" waitingCount="0" stopTime="0.00" timeLoss="9.65" rerouteNo="0" devices="tripinfo_17" vType="DEFAULT_VEHTYPE" speedFactor="1.10" vaporized=""/>
    <tripinfo id="10" depart="36.00" departLane="668307639#0_0" departPos="5.10" departSpeed="0.00" departDelay="0.00" arrival="101.00" arrivalLane="778823268#0_0" arrivalPos="238.22" arrivalSpeed="13.16" duration="65.00" routeLength="503.37" waitingTime="19.00" waitingCount="1" stopTime="0.00" timeLoss="30.49" rerouteNo="0" devices="tripinfo_10" vType="DEFAULT_VEHTYPE" speedFactor="1.00" vaporized=""/>
    <tripinfo id="20" depart="72.00" departLane="448266581#0_0" departPos="5.10" departSpeed="0.00" departDelay="0.00" arrival="102.00" arrivalLane="119238380#0_0" arrivalPos="135.86" arrivalSpeed="14.27" duration="30.00" routeLength="354.71" waitingTime="0.00" waitingCount="0" stopTime="0.00" timeLoss="6.66" rerouteNo="0" devices="tripinfo_20" vType="DEFAULT_VEHTYPE" speedFactor="1.06" vaporized=""/>
    <tripinfo id="15" depart="54.00" departLane="668307639#0_0" departPos="5.10" departSpeed="0.00" departDelay="0.00" arrival="109.00" arrivalLane="778823268#0_0" arrivalPos="238.22" arrivalSpeed="11.12" duration="55.00" routeLength="503.37" waitingTime="2.00" waitingCount="1" stopTime="0.00" timeLoss="13.98" rerouteNo="0" devices="tripinfo_15" vType="DEFAULT_VEHTYPE" speedFactor="0.85" vaporized=""/>
    <tripinfo id="25" depart="90.00" departLane="232079775#2_0" departPos="5.10" departSpeed="0.00" departDelay="0.00" arrival="128.00" arrivalLane="119238385#0_0" arrivalPos="144.87" arrivalSpeed="13.45" duration="38.00" routeLength="347.78" waitingTime="4.00" waitingCount="1" stopTime="0.00" timeLoss="12.55" rerouteNo="0" devices="tripinfo_25" vType="DEFAULT_VEHTYPE" speedFactor="1.01" vaporized=""/>
    <tripinfo id="24" depart="87.00" departLane="448266581#0_0" departPos="5.10" departSpeed="0.00" departDelay="0.60" arrival="145.00" arrivalLane="44499684#3_1" arrivalPos="84.04" arrivalSpeed="14.16" duration="58.00" routeLength="512.41" waitingTime="6.00" waitingCount="1" stopTime="0.00" timeLoss="18.34" rerouteNo="0" devices="tripinfo_24" vType="DEFAULT_VEHTYPE" speedFactor="0.89" vaporized=""/>
    <tripinfo id="27" depart="98.00" departLane="448266581#0_0" departPos="5.10" departSpeed="0.00" departDelay="0.80" arrival="146.00" arrivalLane="668307633#3_0" arrivalPos="112.63" arrivalSpeed="18.77" duration="48.00" routeLength="489.91" waitingTime="8.00" waitingCount="1" stopTime="0.00" timeLoss="21.65" rerouteNo="0" devices="tripinfo_27" vType="DEFAULT_VEHTYPE" speedFactor="1.13" vaporized=""/>
    <tripinfo id="34" depart="123.00" departLane="232079775#2_0" departPos="5.10" departSpeed="0.00" departDelay="0.60" arrival="151.00" arrivalLane="119238385#0_0" arrivalPos="144.87" arrivalSpeed="15.25" duration="28.00" routeLength="347.78" waitingTime="0.00" waitingCount="0" stopTime="0.00" timeLoss="5.39" rerouteNo="0" devices="tripinfo_34" vType="DEFAULT_VEHTYPE" speedFactor="1.12" vaporized=""/>
    <tripinfo id="32" depart="116.00" departLane="668307639#0_0" departPos="5.10" departSpeed="0.00" departDelay="0.80" arrival="157.00" arrivalLane="778823268#0_0" arrivalPos="238.22" arrivalSpeed="13.70" duration="41.00" routeLength="503.37" waitingTime="0.00" waitingCount="0" stopTime="0.00" timeLoss="9.19" rerouteNo="0" devices="tripinfo_32" vType="DEFAULT_VEHTYPE" speedFactor="1.07" vaporized=""/>
    <tripinfo id="39" depart="141.00" departLane="232079775#2_0" departPos="5.10" departSpeed="0.00" departDelay="0.60" arrival="172.00" arrivalLane="119238385#0_0" arrivalPos="144.87" arrivalSpeed="13.18" duration="31.00" routeLength="347.78" waitingTime="0.00" waitingCount="0" stopTime="0.00" timeLoss="5.91" rerouteNo="0" devices="tripinfo_39" vType="DEFAULT_VEHTYPE" speedFactor="1.02" vaporized=""/>
    <tripinfo id="40" depart="144.00" departLane="448266581#0_0" departPos="5.10" departSpeed="0.00" departDelay="0.00" arrival="179.00" arrivalLane="119238385#0_0" arrivalPos="144.87" arrivalSpeed="14.09" duration="35.00" routeLength="416.20" waitingTime="0.00" waitingCount="0" stopTime="0.00" timeLoss="6.76" rerouteNo="0" devices="tripinfo_40" vType="DEFAULT_VEHTYPE" speedFactor="1.05" vaporized=""/>
    <tripinfo id="37" depart="134.00" departLane="448266581#0_0" departPos="5.10" departSpeed="0.00" departDelay="0.80" arrival="184.00" arrivalLane="44499684#3_2" arrivalPos="84.04" arrivalSpeed="15.32" duration="50.00" routeLength="508.78" waitingTime="3.00" waitingCount="1" stopTime="0.00" timeLoss="14.46" rerouteNo="0" devices="tripinfo_37" vType="DEFAULT_VEHTYPE" speedFactor="0.97" vaporized=""/>
    <tripinfo id="42" depart="152.00" departLane="232079775#2_0" departPos="5.10" departSpeed="0.00" departDelay="0.80" arrival="187.00" arrivalLane="119238385#0_0" arrivalPos="144.87" arrivalSpeed="12.54" duration="35.00" routeLength="347.78" waitingTime="0.00" waitingCount="0" stopTime="0.00" timeLoss="8.10" rerouteNo="0" devices="tripinfo_42" vType="DEFAULT_VEHTYPE" speedFactor="0.94" vaporized=""/>
    <tripinfo id="3" depart="11.00" departLane="668307639#0_0" departPos="5.10" departSpeed="0.00" departDelay="0.20" arrival="194.00" arrivalLane="119238380#0_0" arrivalPos="135.86" arrivalSpeed="15.16" duration="183.00" routeLength="495.44" waitingTime="136.00" waitingCount="1" stopTime="0.00" timeLoss="152.40" rerouteNo="0" devices="tripinfo_3" vType="DEFAULT_VEHTYPE" speedFactor="1.13" vaporized=""/>
    <tripinfo id="5" depart="18.00" departLane="-778823268#1_0" departPos="5.10" departSpeed="0.00" departDelay="0.00" arrival="201.00" arrivalLane="668307633#3_1" arrivalPos="112.63" arrivalSpeed="16.95" duration="183.00" routeLength="595.69" waitingTime="133.00" waitingCount="1" stopTime="0.00" timeLoss="143.68" rerouteNo="0" devices="tripinfo_5" vType="DEFAULT_VEHTYPE" speedFactor="1.04" vaporized=""/>
    <tripinfo id="11" depart="40.00" departLane="232079775#2_0" departPos="5.10" departSpeed="0.00" departDelay="0.40" arrival="201.00" arrivalLane="119238380#0_0" arrivalPos="135.86" arrivalSpeed="13.30" duration="161.00" routeLength="467.31" waitingTime="105.00" waitingCount="4" stopTime="0.00" timeLoss="126.40" rerouteNo="0" devices="tripinfo_11" vType="DEFAULT_VEHTYPE" speedFactor="1.00" vaporized=""/>
    <tripinfo id="8" depart="29.00" departLane="-778823268#1_0" departPos="5.10" departSpeed="0.00" departDelay="0.20" arrival="202.00" arrivalLane="668307633#3_1" arrivalPos="112.63" arrivalSpeed="19.12" duration="173.00" routeLength="595.69" waitingTime="125.00" waitingCount="1" stopTime="0.00" timeLoss="137.96" rerouteNo="0" devices="tripinfo_8" vType="DEFAULT_VEHTYPE" speedFactor="1.15" vaporized=""/>
    <tripinfo id="13" depart="47.00" departLane="-778823268#1_0" departPos="5.10" departSpeed="0.00" departDelay="0.20" arrival="202.00" arrivalLane="119238380#0_0" arrivalPos="135.86" arrivalSpeed="14.16" duration="155.00" routeLength="461.48" waitingTime="104.00" waitingCount="2" stopTime="0.00" timeLoss="122.75" rerouteNo="0" devices="tripinfo_13" vType="DEFAULT_VEHTYPE" speedFactor="1.04" vaporized=""/>
    <tripinfo id="14" depart="51.00" departLane="668307639#0_0" departPos="5.10" departSpeed="0.00" departDelay="0.60" arrival="204.00" arrivalLane="668307633#3_1" arrivalPos="112.63" arrivalSpeed="18.19" duration="153.00" routeLength="623.09" waitingTime="95.00" waitingCount="2" stopTime="0.00" timeLoss="116.18" rerouteNo="0" devices="tripinfo_14" vType="DEFAULT_VEHTYPE" speedFactor="1.10" vaporized=""/>
    <tripinfo id="4" depart="15.00" departLane="232079775#2_0" departPos="5.10" departSpeed="0.00" departDelay="0.60" arrival="205.00" arrivalLane="119238380#0_0" arrivalPos="135.86" arrivalSpeed="13.51" duration="190.00" routeLength="467.31" waitingTime="127.00" waitingCount="4" stopTime="0.00" timeLoss="154.77" rerouteNo="0" devices="tripinfo_4" vType="DEFAULT_VEHTYPE" speedFactor="0.99" vaporized=""/>
    <tripinfo id="6" depart="22.00" departLane="-778823268#1_0" departPos="5.10" departSpeed="0.00" departDelay="0.40" arrival="207.00" arrivalLane="119238385#0_0" arrivalPos="144.87" arrivalSpeed="11.21" duration="185.00" routeLength="522.97" waitingTime="123.00" waitingCount="2" stopTime="0.00" timeLoss="138.60" rerouteNo="0" devices="tripinfo_6" vType="DEFAULT_VEHTYPE" speedFactor="0.84" vaporized=""/>
    <tripinfo id="9" depart="33.00" departLane="668307639#0_0" departPos="5.10" departSpeed="0.00" departDelay="0.60" arrival="211.00" arrivalLane="119238380#0_0" arrivalPos="135.86" arrivalSpeed="10.39" duration="178.00" routeLength="497.82" waitingTime="119.00" waitingCount="3" stopTime="0.00" timeLoss="135.94" rerouteNo="0" devices="tripinfo_9" vType="DEFAULT_VEHTYPE" speedFactor="0.80" vaporized=""/>
    <tripinfo id="21" depart="76.00" departLane="-778823268#1_0" departPos="5.10" departSpeed="0.00" departDelay="0.40" arrival="212.00" arrivalLane="119238385#0_0" arrivalPos="144.87" arrivalSpeed="13.33" duration="136.00" routeLength="522.97" waitingTime="78.00" waitingCount="2" stopTime="0.00" timeLoss="97.03" rerouteNo="0" devices="tripinfo_21" vType="DEFAULT_VEHTYPE" speedFactor="0.99" vaporized=""/>
    <tripinfo id="45" depart="162.00" departLane="-778823268#1_0" departPos="5.10" departSpeed="0.00" departDelay="0.00" arrival="212.00" arrivalLane="668307633#3_1" arrivalPos="112.63" arrivalSpeed="17.14" duration="50.00" routeLength="595.69" waitingTime="0.00" waitingCount="0" stopTime="0.00" timeLoss="10.61" rerouteNo="0" devices="tripinfo_45" vType="DEFAULT_VEHTYPE" speedFactor="1.03" vaporized=""/>
    <tripinfo id="35" depart="126.00" departLane="-778823268#1_0" departPos="5.10" departSpeed="0.00" departDelay="0.00" arrival="214.00" arrivalLane="E1_0" arrivalPos="103.00" arrivalSpeed="12.19" duration="88.00" routeLength="369.88" waitingTime="36.00" waitingCount="1" stopTime="0.00" timeLoss="57.19" rerouteNo="0" devices="tripinfo_35" vType="DEFAULT_VEHTYPE" speedFactor="0.89" vaporized=""/>
    <tripinfo id="29" depart="105.00" departLane="-778823268#1_0" departPos="5.10" departSpeed="0.00" departDelay="0.60" arrival="215.00" arrivalLane="44499684#3_0" arrivalPos="84.04" arrivalSpeed="15.11" duration="110.00" routeLength="453.00" waitingTime="56.00" waitingCount="1" stopTime="0.00" timeLoss="76.39" rerouteNo="0" devices="tripinfo_29" vType="DEFAULT_VEHTYPE" speedFactor="0.92" vaporized=""/>
    <tripinfo id="22" depart="80.00" departLane="-778823268#1_0" departPos="5.10" departSpeed="0.00" departDelay="0.80" arrival="216.00" arrivalLane="119238385#0_0" arrivalPos="144.87" arrivalSpeed="14.32" duration="136.00" routeLength="522.97" waitingTime="75.00" waitingCount="3" stopTime="0.00" timeLoss="98.78" rerouteNo="0" devices="tripinfo_22" vType="DEFAULT_VEHTYPE" speedFactor="1.05" vaporized=""/>
    <tripinfo id="46" depart="166.00" departLane="668307639#0_0" departPos="5.10" departSpeed="0.00" departDelay="0.40" arrival="218.00" arrivalLane="44499684#3_1" arrivalPos="84.04" arrivalSpeed="16.08" duration="52.00" routeLength="485.82" waitingTime="11.00" waitingCount="1" stopTime="0.00" timeLoss="22.21" rerouteNo="0" devices="tripinfo_46" vType="DEFAULT_VEHTYPE" speedFactor="1.01" vaporized=""/>
    <tripinfo id="38" depart="137.00" departLane="668307639#0_0" departPos="5.10" departSpeed="0.00" departDelay="0.20" arrival="220.00" arrivalLane="44499684#3_0" arrivalPos="84.04" arrivalSpeed="14.33" duration="83.00" routeLength="485.82" waitingTime="32.00" waitingCount="2" stopTime="0.00" timeLoss="48.11" rerouteNo="0" devices="tripinfo_38" vType="DEFAULT_VEHTYPE" speedFactor="0.87" vaporized=""/>
    <tripinfo id="23" depart="83.00" departLane="-778823268#1_0" departPos="5.10" departSpeed="0.00" departDelay="0.20" arrival="223.00" arrivalLane="119238385#0_0" arrivalPos="144.87" arrivalSpeed="11.05" duration="140.00" routeLength="522.97" waitingTime="71.00" waitingCount="3" stopTime="0.00" timeLoss="94.12" rerouteNo="0" devices="tripinfo_23" vType="DEFAULT_VEHTYPE" speedFactor="0.85" vaporized=""/>
    <tripinfo id="47" depart="170.00" departLane="-778823268#1_0" departPos="5.10" departSpeed="0.00" departDelay="0.80" arrival="225.00" arrivalLane="44499684#3_0" arrivalPos="84.04" arrivalSpeed="15.91" duration="55.00" routeLength="453.00" waitingTime="0.00" waitingCount="0" stopTime="0.00" timeLoss="22.61" rerouteNo="0" devices="tripinfo_47" vType="DEFAULT_VEHTYPE" speedFactor="0.99" vaporized=""/>
    <tripinfo id="53" depart="191.00" departLane="-778823268#1_0" departPos="5.10" departSpeed="0.00" departDelay="0.20" arrival="229.00" arrivalLane="44499684#3_0" arrivalPos="84.04" arrivalSpeed="16.64" duration="38.00" routeLength="453.00" waitingTime="0.00" waitingCount="0" stopTime="0.00" timeLoss="8.07" rerouteNo="0" devices="tripinfo_53" vType="DEFAULT_VEHTYPE" speedFactor="1.05" vaporized=""/>
    <tripinfo id="52" depart="188.00" departLane="232079775#2_0" departPos="5.10" departSpeed="0.00" departDelay="0.80" arrival="230.00" arrivalLane="668307633#3_0" arrivalPos="112.63" arrivalSpeed="17.63" duration="42.00" routeLength="455.41" waitingTime="2.00" waitingCount="1" stopTime="0.00" timeLoss="14.39" rerouteNo="0" devices="tripinfo_52" vType="DEFAULT_VEHTYPE" speedFactor="1.11" vaporized=""/>
    <tripinfo id="56" depart="202.00" departLane="448266581#0_0" departPos="5.10" departSpeed="0.00" departDelay="0.40" arrival="238.00" arrivalLane="119238385#0_0" arrivalPos="144.87" arrivalSpeed="13.23" duration="36.00" routeLength="413.39" waitingTime="0.00" waitingCount="0" stopTime="0.00" timeLoss="7.11" rerouteNo="0" devices="tripinfo_56" vType="DEFAULT_VEHTYPE" speedFactor="1.03" vaporized=""/>
    <tripinfo id="33" depart="119.00" departLane="-778823268#1_0" departPos="5.10" departSpeed="0.00" departDelay="0.20" arrival="243.00" arrivalLane="119238380#0_0" arrivalPos="135.86" arrivalSpeed="15.72" duration="124.00" routeLength="461.48" waitingTime="69.00" waitingCount="2" stopTime="0.00" timeLoss="94.79" rerouteNo="0" devices="tripinfo_33" vType="DEFAULT_VEHTYPE" speedFactor="1.15" vaporized=""/>
    <tripinfo id="44" depart="159.00" departLane="-778823268#1_0" departPos="5.10" departSpeed="0.00" departDelay="0.60" arrival="246.00" arrivalLane="119238380#0_0" arrivalPos="135.86" arrivalSpeed="14.09" duration="87.00" routeLength="461.48" waitingTime="27.00" waitingCount="2" stopTime="0.00" timeLoss="55.63" rerouteNo="0" devices="tripinfo_44" vType="DEFAULT_VEHTYPE" speedFactor="1.08" vaporized=""/>
    <tripinfo id="36" depart="130.00" departLane="668307639#0_0" departPos="5.10" departSpeed="0.00" departDelay="0.40" arrival="253.00" arrivalLane="119238385#0_0" arrivalPos="144.87" arrivalSpeed="14.67" duration="123.00" routeLength="556.93" waitingTime="67.00" waitingCount="3" stopTime="0.00" timeLoss="87.82" rerouteNo="0" devices="tripinfo_36" vType="DEFAULT_VEHTYPE" speedFactor="1.11" vaporized=""/>
    <tripinfo id="58" depart="209.00" departLane="232079775#2_0" departPos="5.10" departSpeed="0.00" departDelay="0.20" arrival="253.00" arrivalLane="668307633#3_0" arrivalPos="112.63" arrivalSpeed="13.16" duration="44.00" routeLength="455.41" waitingTime="0.00" waitingCount="0" stopTime="0.00" timeLoss="7.76" rerouteNo="0" devices="tripinfo_58" vType="DEFAULT_VEHTYPE" speedFactor="0.86" vaporized=""/>
    <tripinfo id="63" depart="227.00" departLane="-778823268#1_0" departPos="5.10" departSpeed="0.00" departDelay="0.20" arrival="260.00" arrivalLane="E1_0" arrivalPos="103.00" arrivalSpeed="13.79" duration="33.00" routeLength="369.88" waitingTime="0.00" waitingCount="0" stopTime="0.00" timeLoss="6.00" rerouteNo="0" devices="tripinfo_63" vType="DEFAULT_VEHTYPE" speedFactor="1.01" vaporized=""/>
    <tripinfo id="57" depart="206.00" departLane="668307639#0_0" departPos="5.10" departSpeed="0.00" departDelay="0.80" arrival="268.00" arrivalLane="E1_1" arrivalPos="103.00" arrivalSpeed="15.38" duration="62.00" routeLength="411.03" waitingTime="24.00" waitingCount="2" stopTime="0.00" timeLoss="37.23" rerouteNo="0" devices="tripinfo_57" vType="DEFAULT_VEHTYPE" speedFactor="1.13" vaporized=""/>
    <tripinfo id="49" depart="177.00" departLane="668307639#0_0" departPos="5.10" departSpeed="0.00" departDelay="0.60" arrival="271.00" arrivalLane="E1_1" arrivalPos="103.00" arrivalSpeed="15.28" duration="94.00" routeLength="413.41" waitingTime="45.00" waitingCount="3" stopTime="0.00" timeLoss="68.52" rerouteNo="0" devices="tripinfo_49" vType="DEFAULT_VEHTYPE" speedFactor="1.11" vaporized=""/>
    <tripinfo id="62" depart="224.00" departLane="-778823268#1_0" departPos="5.10" departSpeed="0.00" departDelay="0.80" arrival="272.00" arrivalLane="119238385#0_0" arrivalPos="144.87" arrivalSpeed="12.31" duration="48.00" routeLength="522.97" waitingTime="0.00" waitingCount="0" stopTime="0.00" timeLoss="6.88" rerouteNo="0" devices="tripinfo_62" vType="DEFAULT_VEHTYPE" speedFactor="0.95" vaporized=""/>
    <tripinfo id="55" depart="198.00" departLane="668307639#0_0" departPos="5.10" departSpeed="0.00" departDelay="0.00" arrival="274.00" arrivalLane="119238385#0_0" arrivalPos="144.87" arrivalSpeed="15.01" duration="76.00" routeLength="556.93" waitingTime="26.00" waitingCount="1" stopTime="0.00" timeLoss="40.79" rerouteNo="0" devices="tripinfo_55" vType="DEFAULT_VEHTYPE" speedFactor="1.12" vaporized=""/>
    <tripinfo id="64" depart="231.00" departLane="668307639#0_0" departPos="5.10" departSpeed="0.00" departDelay="0.60" arrival="274.00" arrivalLane="778823268#0_0" arrivalPos="238.22" arrivalSpeed="14.23" duration="43.00" routeLength="503.37" waitingTime="0.00" waitingCount="0" stopTime="0.00" timeLoss="11.24" rerouteNo="0" devices="tripinfo_64" vType="DEFAULT_VEHTYPE" speedFactor="1.08" vaporized=""/>
    <tripinfo id="66" depart="238.00" departLane="668307639#0_0" departPos="5.10" departSpeed="0.00" departDelay="0.40" arrival="281.00" arrivalLane="E1_1" arrivalPos="103.00" arrivalSpeed="10.70" duration="43.00" routeLength="411.03" waitingTime="1.00" waitingCount="1" stopTime="0.00" timeLoss="9.77" rerouteNo="0" devices="tripinfo_66" vType="DEFAULT_VEHTYPE" speedFactor="0.84" vaporized=""/>
    <tripinfo id="67" depart="242.00" departLane="-778823268#1_0" departPos="5.10" departSpeed="0.00" departDelay="0.80" arrival="283.00" arrivalLane="44499684#3_0" arrivalPos="84.04" arrivalSpeed="14.96" duration="41.00" routeLength="453.00" waitingTime="0.00" waitingCount="0" stopTime="0.00" timeLoss="7.32" rerouteNo="0" devices="tripinfo_67" vType="DEFAULT_VEHTYPE" speedFactor="0.92" vaporized=""/>
    <tripinfo id="26" depart="94.00" departLane="232079775#2_0" departPos="5.10" departSpeed="0.00" departDelay="0.40" arrival="293.00" arrivalLane="E1_1" arrivalPos="103.00" arrivalSpeed="14.34" duration="199.00" routeLength="382.90" waitingTime="153.00" waitingCount="2" stopTime="0.00" timeLoss="171.66" rerouteNo="0" devices="tripinfo_26" vType="DEFAULT_VEHTYPE" speedFactor="1.06" vaporized=""/>
    <tripinfo id="70" depart="252.00" departLane="232079775#2_0" departPos="5.10" departSpeed="0.00" departDelay="0.00" arrival="293.00" arrivalLane="668307633#3_0" arrivalPos="112.63" arrivalSpeed="15.55" duration="41.00" routeLength="455.41" waitingTime="0.00" waitingCount="0" stopTime="0.00" timeLoss="7.82" rerouteNo="0" devices="tripinfo_70" vType="DEFAULT_VEHTYPE" speedFactor="0.94" vaporized=""/>
    <tripinfo id="41" depart="148.00" departLane="448266581#0_0" departPos="5.10" departSpeed="0.00" departDelay="0.40" arrival="295.00" arrivalLane="E1_1" arrivalPos="103.00" arrivalSpeed="14.33" duration="147.00" routeLength="446.50" waitingTime="100.00" waitingCount="1" stopTime="0.00" timeLoss="116.64" rerouteNo="0" devices="tripinfo_41" vType="DEFAULT_VEHTYPE" speedFactor="1.08" vaporized=""/>
    <tripinfo id="59" depart="213.00" departLane="448266581#0_0" departPos="5.10" departSpeed="0.00" departDelay="0.60" arrival="298.00" arrivalLane="119238380#0_0" arrivalPos="135.86" arrivalSpeed="10.93" duration="85.00" routeLength="354.71" waitingTime="46.00" waitingCount="1" stopTime="0.00" timeLoss="55.84" rerouteNo="0" devices="tripinfo_59" vType="DEFAULT_VEHTYPE" speedFactor="0.85" vaporized=""/>
    <tripinfo id="16" depart="58.00" departLane="448266581#0_0" departPos="5.10" departSpeed="0.00" departDelay="0.40" arrival="303.00" arrivalLane="E1_1" arrivalPos="103.00" arrivalSpeed="12.96" duration="245.00" routeLength="448.81" waitingTime="193.00" waitingCount="3" stopTime="0.00" timeLoss="210.85" rerouteNo="0" devices="tripinfo_16" vType="DEFAULT_VEHTYPE" speedFactor="0.95" vaporized=""/>
    <tripinfo id="54" depart="195.00" departLane="232079775#2_0" departPos="5.10" departSpeed="0.00" departDelay="0.60" arrival="305.00" arrivalLane="E1_1" arrivalPos="103.00" arrivalSpeed="14.80" duration="110.00" routeLength="382.90" waitingTime="62.00" waitingCount="2" stopTime="0.00" timeLoss="83.51" rerouteNo="0" devices="tripinfo_54" vType="DEFAULT_VEHTYPE" speedFactor="1.10" vaporized=""/>
    <tripinfo id="72" depart="260.00" departLane="232079775#2_0" departPos="5.10" departSpeed="0.00" departDelay="0.80" arrival="306.00" arrivalLane="119238385#0_0" arrivalPos="144.87" arrivalSpeed="14.24" duration="46.00" routeLength="347.78" waitingTime="12.00" waitingCount="1" stopTime="0.00" timeLoss="21.91" rerouteNo="0" devices="tripinfo_72" vType="DEFAULT_VEHTYPE" speedFactor="1.04" vaporized=""/>
    <tripinfo id="71" depart="256.00" departLane="232079775#2_0" departPos="5.10" departSpeed="0.00" departDelay="0.40" arrival="312.00" arrivalLane="E1_1" arrivalPos="103.00" arrivalSpeed="14.35" duration="56.00" routeLength="382.90" waitingTime="14.00" waitingCount="1" stopTime="0.00" timeLoss="29.92" rerouteNo="0" devices="tripinfo_71" vType="DEFAULT_VEHTYPE" speedFactor="1.09" vaporized=""/>
    <tripinfo id="31" depart="112.00" departLane="448266581#0_0" departPos="5.10" departSpeed="0.00" departDelay="0.40" arrival="313.00" arrivalLane="778823268#0_0" arrivalPos="238.22" arrivalSpeed="12.83" duration="201.00" routeLength="546.01" waitingTime="145.00" waitingCount="1" stopTime="0.00" timeLoss="159.10" rerouteNo="0" devices="tripinfo_31" vType="DEFAULT_VEHTYPE" speedFactor="0.92" vaporized=""/>
    <tripinfo id="68" depart="245.00" departLane="-778823268#1_0" departPos="5.10" departSpeed="0.00" departDelay="0.20" arrival="314.00" arrivalLane="778823268#0_1" arrivalPos="238.22" arrivalSpeed="13.69" duration="69.00" routeLength="659.30" waitingTime="1.00" waitingCount="1" stopTime="0.00" timeLoss="23.73" rerouteNo="0" devices="tripinfo_68" vType="DEFAULT_VEHTYPE" speedFactor="1.07" vaporized=""/>
    <tripinfo id="28" depart="101.00" departLane="-778823268#1_0" departPos="5.10" departSpeed="0.00" departDelay="0.20" arrival="315.00" arrivalLane="778823268#0_0" arrivalPos="238.22" arrivalSpeed="14.80" duration="214.00" routeLength="655.26" waitingTime="145.00" waitingCount="2" stopTime="0.00" timeLoss="170.70" rerouteNo="0" devices="tripinfo_28" vType="DEFAULT_VEHTYPE" speedFactor="1.12" vaporized=""/>
    <tripinfo id="50" depart="180.00" departLane="-778823268#1_0" departPos="5.10" departSpeed="0.00" departDelay="0.00" arrival="316.00" arrivalLane="778823268#0_1" arrivalPos="238.22" arrivalSpeed="13.45" duration="136.00" routeLength="655.26" waitingTime="68.00" waitingCount="2" stopTime="0.00" timeLoss="90.17" rerouteNo="0" devices="tripinfo_50" vType="DEFAULT_VEHTYPE" speedFactor="1.05" vaporized=""/>
    <tripinfo id="78" depart="281.00" departLane="232079775#2_0" departPos="5.10" departSpeed="0.00" departDelay="0.20" arrival="320.00" arrivalLane="668307633#3_1" arrivalPos="112.63" arrivalSpeed="16.15" duration="39.00" routeLength="460.73" waitingTime="0.00" waitingCount="0" stopTime="0.00" timeLoss="7.77" rerouteNo="0" devices="tripinfo_78" vType="DEFAULT_VEHTYPE" speedFactor="0.99" vaporized=""/>
    <tripinfo id="69" depart="249.00" departLane="668307639#0_0" departPos="5.10" departSpeed="0.00" departDelay="0.60" arrival="321.00" arrivalLane="119238380#0_0" arrivalPos="135.86" arrivalSpeed="13.03" duration="72.00" routeLength="495.44" waitingTime="22.00" waitingCount="1" stopTime="0.00" timeLoss="36.27" rerouteNo="0" devices="tripinfo_69" vType="DEFAULT_VEHTYPE" speedFactor="0.96" vaporized=""/>
    <tripinfo id="76" depart="274.00" departLane="232079775#2_0" departPos="5.10" departSpeed="0.00" departDelay="0.40" arrival="321.00" arrivalLane="668307633#3_0" arrivalPos="112.63" arrivalSpeed="13.02" duration="47.00" routeLength="455.41" waitingTime="0.00" waitingCount="0" stopTime="0.00" timeLoss="10.43" rerouteNo="0" devices="tripinfo_76" vType="DEFAULT_VEHTYPE" speedFactor="0.83" vaporized=""/>
    <tripinfo id="73" depart="263.00" departLane="448266581#0_0" departPos="5.10" departSpeed="0.00" departDelay="0.20" arrival="324.00" arrivalLane="778823268#0_0" arrivalPos="238.22" arrivalSpeed="11.78" duration="61.00" routeLength="547.37" waitingTime="1.00" waitingCount="1" stopTime="0.00" timeLoss="18.83" rerouteNo="0" devices="tripinfo_73" vType="DEFAULT_VEHTYPE" speedFactor="0.93" vaporized=""/>
    <tripinfo id="81" depart="292.00" departLane="-778823268#1_0" departPos="5.10" departSpeed="0.00" departDelay="0.40" arrival="324.00" arrivalLane="E1_0" arrivalPos="103.00" arrivalSpeed="13.26" duration="32.00" routeLength="369.88" waitingTime="0.00" waitingCount="0" stopTime="0.00" timeLoss="5.63" rerouteNo="0" devices="tripinfo_81" vType="DEFAULT_VEHTYPE" speedFactor="1.04" vaporized=""/>
    <tripinfo id="65" depart="234.00" departLane="232079775#2_0" departPos="5.10" departSpeed="0.00" departDelay="0.00" arrival="325.00" arrivalLane="119238380#0_0" arrivalPos="135.86" arrivalSpeed="13.56" duration="91.00" routeLength="466.15" waitingTime="35.00" waitingCount="3" stopTime="0.00" timeLoss="55.92" rerouteNo="0" devices="tripinfo_65" vType="DEFAULT_VEHTYPE" speedFactor="0.98" vaporized=""/>