<?xml version="1.0" encoding="UTF-8"?>

<!-- generated on 2024-08-31 19:23:59 by Eclipse SUMO sumo Version 1.20.0
<configuration xmlns:xsi="http://www.w3.org/2001/XMLSchema-instance" xsi:noNamespaceSchemaLocation="http://sumo.dlr.de/xsd/sumoConfiguration.xsd">

    <input>
        <net-file value="c:\self\School\Master\Disertation\code\RESCO\resco_benchmark\environments/romana/osm.net.xml.gz"/>
        <route-files value="c:\self\School\Master\Disertation\code\RESCO\resco_benchmark\environments/romana/osm.passenger.trips.xml"/>
        <additional-files value="c:\self\School\Master\Disertation\code\RESCO\resco_benchmark\environments/romana/osm.poly.xml.gz"/>
    </input>

    <output>
        <tripinfo-output value="C:\self\School\Master\Disertation\code\RESCO\results\IDQN-tr0-romana-0-drq-wait\tripinfo_10.xml"/>
        <tripinfo-output.write-unfinished value="true"/>
    </output>

    <processing>
        <ignore-route-errors value="true"/>
        <time-to-teleport value="-1"/>
    </processing>

    <routing>
        <device.rerouting.adaptation-steps value="18"/>
        <device.rerouting.adaptation-interval value="10"/>
    </routing>

    <report>
        <verbose value="true"/>
        <no-warnings value="True"/>
        <duration-log.statistics value="true"/>
        <no-step-log value="True"/>
    </report>

    <traci_server>
        <remote-port value="58941"/>
    </traci_server>

    <random_number>
        <random value="true"/>
    </random_number>

    <gui_only>
        <gui-settings-file value="c:\self\School\Master\Disertation\code\RESCO\resco_benchmark\environments/romana/osm.view.xml"/>
    </gui_only>

</configuration>
-->

<tripinfos xmlns:xsi="http://www.w3.org/2001/XMLSchema-instance" xsi:noNamespaceSchemaLocation="http://sumo.dlr.de/xsd/tripinfo_file.xsd">
    <tripinfo id="0" depart="0.00" departLane="448266581#0_0" departPos="5.10" departSpeed="0.00" departDelay="0.00" arrival="31.00" arrivalLane="119238380#0_0" arrivalPos="135.86" arrivalSpeed="13.50" duration="31.00" routeLength="354.71" waitingTime="0.00" waitingCount="0" stopTime="0.00" timeLoss="6.11" rerouteNo="0" devices="tripinfo_0" vType="DEFAULT_VEHTYPE" speedFactor="1.00" vaporized=""/>
    <tripinfo id="1" depart="4.00" departLane="232079775#2_0" departPos="5.10" departSpeed="0.00" departDelay="0.40" arrival="37.00" arrivalLane="119238385#0_0" arrivalPos="144.87" arrivalSpeed="12.73" duration="33.00" routeLength="347.78" waitingTime="0.00" waitingCount="0" stopTime="0.00" timeLoss="6.41" rerouteNo="0" devices="tripinfo_1" vType="DEFAULT_VEHTYPE" speedFactor="0.95" vaporized=""/>
    <tripinfo id="2" depart="8.00" departLane="448266581#0_0" departPos="5.10" departSpeed="0.00" departDelay="0.80" arrival="82.00" arrivalLane="778823268#0_0" arrivalPos="238.22" arrivalSpeed="11.52" duration="74.00" routeLength="546.01" waitingTime="15.00" waitingCount="1" stopTime="0.00" timeLoss="29.10" rerouteNo="0" devices="tripinfo_2" vType="DEFAULT_VEHTYPE" speedFactor="0.87" vaporized=""/>
    <tripinfo id="20" depart="72.00" departLane="448266581#0_0" departPos="5.10" departSpeed="0.00" departDelay="0.00" arrival="102.00" arrivalLane="119238380#0_0" arrivalPos="135.86" arrivalSpeed="13.61" duration="30.00" routeLength="354.71" waitingTime="0.00" waitingCount="0" stopTime="0.00" timeLoss="6.33" rerouteNo="0" devices="tripinfo_20" vType="DEFAULT_VEHTYPE" speedFactor="1.02" vaporized=""/>
    <tripinfo id="17" depart="62.00" departLane="232079775#2_0" departPos="5.10" departSpeed="0.00" departDelay="0.80" arrival="107.00" arrivalLane="668307633#3_0" arrivalPos="112.63" arrivalSpeed="14.60" duration="45.00" routeLength="455.41" waitingTime="0.00" waitingCount="0" stopTime="0.00" timeLoss="11.76" rerouteNo="0" devices="tripinfo_17" vType="DEFAULT_VEHTYPE" speedFactor="0.94" vaporized=""/>
    <tripinfo id="25" depart="90.00" departLane="232079775#2_0" departPos="5.10" departSpeed="0.00" departDelay="0.00" arrival="117.00" arrivalLane="119238385#0_0" arrivalPos="144.87" arrivalSpeed="16.24" duration="27.00" routeLength="347.78" waitingTime="0.00" waitingCount="0" stopTime="0.00" timeLoss="6.20" rerouteNo="0" devices="tripinfo_25" vType="DEFAULT_VEHTYPE" speedFactor="1.21" vaporized=""/>
    <tripinfo id="13" depart="47.00" departLane="-778823268#1_0" departPos="5.10" departSpeed="0.00" departDelay="0.20" arrival="122.00" arrivalLane="119238380#0_0" arrivalPos="135.86" arrivalSpeed="14.68" duration="75.00" routeLength="461.48" waitingTime="31.00" waitingCount="1" stopTime="0.00" timeLoss="42.91" rerouteNo="0" devices="tripinfo_13" vType="DEFAULT_VEHTYPE" speedFactor="1.06" vaporized=""/>
    <tripinfo id="11" depart="40.00" departLane="232079775#2_0" departPos="5.10" departSpeed="0.00" departDelay="0.40" arrival="126.00" arrivalLane="119238380#0_0" arrivalPos="135.86" arrivalSpeed="10.86" duration="86.00" routeLength="466.15" waitingTime="31.00" waitingCount="2" stopTime="0.00" timeLoss="46.54" rerouteNo="0" devices="tripinfo_11" vType="DEFAULT_VEHTYPE" speedFactor="0.86" vaporized=""/>
    <tripinfo id="6" depart="22.00" departLane="-778823268#1_0" departPos="5.10" departSpeed="0.00" departDelay="0.40" arrival="128.00" arrivalLane="119238385#0_0" arrivalPos="144.87" arrivalSpeed="11.49" duration="106.00" routeLength="522.97" waitingTime="52.00" waitingCount="1" stopTime="0.00" timeLoss="61.94" rerouteNo="0" devices="tripinfo_6" vType="DEFAULT_VEHTYPE" speedFactor="0.89" vaporized=""/>
    <tripinfo id="3" depart="11.00" departLane="668307639#0_0" departPos="5.10" departSpeed="0.00" departDelay="0.20" arrival="129.00" arrivalLane="119238380#0_0" arrivalPos="135.86" arrivalSpeed="10.78" duration="118.00" routeLength="495.44" waitingTime="61.00" waitingCount="2" stopTime="0.00" timeLoss="76.42" rerouteNo="0" devices="tripinfo_3" vType="DEFAULT_VEHTYPE" speedFactor="0.82" vaporized=""/>
    <tripinfo id="16" depart="58.00" departLane="448266581#0_0" departPos="5.10" departSpeed="0.00" departDelay="0.40" arrival="131.00" arrivalLane="E1_1" arrivalPos="103.00" arrivalSpeed="12.96" duration="73.00" routeLength="446.50" waitingTime="29.00" waitingCount="1" stopTime="0.00" timeLoss="40.72" rerouteNo="0" devices="tripinfo_16" vType="DEFAULT_VEHTYPE" speedFactor="1.00" vaporized=""/>
    <tripinfo id="21" depart="76.00" departLane="-778823268#1_0" departPos="5.10" departSpeed="0.00" departDelay="0.40" arrival="133.00" arrivalLane="119238385#0_0" arrivalPos="144.87" arrivalSpeed="13.83" duration="57.00" routeLength="522.97" waitingTime="8.00" waitingCount="1" stopTime="0.00" timeLoss="19.96" rerouteNo="0" devices="tripinfo_21" vType="DEFAULT_VEHTYPE" speedFactor="1.05" vaporized=""/>
    <tripinfo id="4" depart="15.00" departLane="232079775#2_0" departPos="5.10" departSpeed="0.00" departDelay="0.60" arrival="137.00" arrivalLane="119238380#0_0" arrivalPos="135.86" arrivalSpeed="11.52" duration="122.00" routeLength="467.31" waitingTime="64.00" waitingCount="2" stopTime="0.00" timeLoss="84.62" rerouteNo="0" devices="tripinfo_4" vType="DEFAULT_VEHTYPE" speedFactor="0.92" vaporized=""/>
    <tripinfo id="22" depart="80.00" departLane="-778823268#1_0" departPos="5.10" departSpeed="0.00" departDelay="0.80" arrival="138.00" arrivalLane="119238385#0_0" arrivalPos="144.87" arrivalSpeed="12.13" duration="58.00" routeLength="522.97" waitingTime="4.00" waitingCount="1" stopTime="0.00" timeLoss="15.27" rerouteNo="0" devices="tripinfo_22" vType="DEFAULT_VEHTYPE" speedFactor="0.92" vaporized=""/>
    <tripinfo id="23" depart="83.00" departLane="-778823268#1_0" departPos="5.10" departSpeed="0.00" departDelay="0.20" arrival="142.00" arrivalLane="119238385#0_0" arrivalPos="144.87" arrivalSpeed="11.48" duration="59.00" routeLength="522.97" waitingTime="2.00" waitingCount="1" stopTime="0.00" timeLoss="14.56" rerouteNo="0" devices="tripinfo_23" vType="DEFAULT_VEHTYPE" speedFactor="0.88" vaporized=""/>
    <tripinfo id="26" depart="94.00" departLane="232079775#2_0" departPos="5.10" departSpeed="0.00" departDelay="0.40" arrival="142.00" arrivalLane="E1_1" arrivalPos="103.00" arrivalSpeed="13.21" duration="48.00" routeLength="382.90" waitingTime="1.00" waitingCount="1" stopTime="0.00" timeLoss="20.17" rerouteNo="0" devices="tripinfo_26" vType="DEFAULT_VEHTYPE" speedFactor="1.03" vaporized=""/>
    <tripinfo id="29" depart="105.00" departLane="-778823268#1_0" departPos="5.10" departSpeed="0.00" departDelay="0.60" arrival="146.00" arrivalLane="44499684#3_0" arrivalPos="84.04" arrivalSpeed="15.34" duration="41.00" routeLength="453.00" waitingTime="0.00" waitingCount="0" stopTime="0.00" timeLoss="8.23" rerouteNo="0" devices="tripinfo_29" vType="DEFAULT_VEHTYPE" speedFactor="0.96" vaporized=""/>
    <tripinfo id="34" depart="123.00" departLane="232079775#2_0" departPos="5.10" departSpeed="0.00" departDelay="0.60" arrival="154.00" arrivalLane="119238385#0_0" arrivalPos="144.87" arrivalSpeed="14.45" duration="31.00" routeLength="347.78" waitingTime="0.00" waitingCount="0" stopTime="0.00" timeLoss="7.09" rerouteNo="0" devices="tripinfo_34" vType="DEFAULT_VEHTYPE" speedFactor="1.08" vaporized=""/>
    <tripinfo id="35" depart="126.00" departLane="-778823268#1_0" departPos="5.10" departSpeed="0.00" departDelay="0.00" arrival="159.00" arrivalLane="E1_0" arrivalPos="103.00" arrivalSpeed="13.53" duration="33.00" routeLength="369.88" waitingTime="0.00" waitingCount="0" stopTime="0.00" timeLoss="5.35" rerouteNo="0" devices="tripinfo_35" vType="DEFAULT_VEHTYPE" speedFactor="0.98" vaporized=""/>
    <tripinfo id="33" depart="119.00" departLane="-778823268#1_0" departPos="5.10" departSpeed="0.00" departDelay="0.20" arrival="166.00" arrivalLane="119238380#0_0" arrivalPos="135.86" arrivalSpeed="10.19" duration="47.00" routeLength="461.48" waitingTime="0.00" waitingCount="0" stopTime="0.00" timeLoss="5.74" rerouteNo="0" devices="tripinfo_33" vType="DEFAULT_VEHTYPE" speedFactor="0.83" vaporized=""/>
    <tripinfo id="28" depart="101.00" departLane="-778823268#1_0" departPos="5.10" departSpeed="0.00" departDelay="0.20" arrival="169.00" arrivalLane="778823268#0_0" arrivalPos="238.22" arrivalSpeed="10.47" duration="68.00" routeLength="655.26" waitingTime="0.00" waitingCount="0" stopTime="0.00" timeLoss="8.00" rerouteNo="0" devices="tripinfo_28" vType="DEFAULT_VEHTYPE" speedFactor="0.81" vaporized=""/>
    <tripinfo id="39" depart="141.00" departLane="232079775#2_0" departPos="5.10" departSpeed="0.00" departDelay="0.60" arrival="171.00" arrivalLane="119238385#0_0" arrivalPos="144.87" arrivalSpeed="14.07" duration="30.00" routeLength="347.78" waitingTime="0.00" waitingCount="0" stopTime="0.00" timeLoss="6.13" rerouteNo="0" devices="tripinfo_39" vType="DEFAULT_VEHTYPE" speedFactor="1.05" vaporized=""/>
    <tripinfo id="5" depart="18.00" departLane="-778823268#1_0" departPos="5.10" departSpeed="0.00" departDelay="0.00" arrival="172.00" arrivalLane="668307633#3_1" arrivalPos="112.63" arrivalSpeed="16.55" duration="154.00" routeLength="595.69" waitingTime="97.00" waitingCount="2" stopTime="0.00" timeLoss="114.05" rerouteNo="0" devices="tripinfo_5" vType="DEFAULT_VEHTYPE" speedFactor="1.00" vaporized=""/>
    <tripinfo id="12" depart="44.00" departLane="668307639#0_0" departPos="5.10" departSpeed="0.00" departDelay="0.80" arrival="173.00" arrivalLane="44499684#3_0" arrivalPos="84.04" arrivalSpeed="14.88" duration="129.00" routeLength="486.19" waitingTime="85.00" waitingCount="1" stopTime="0.00" timeLoss="95.82" rerouteNo="0" devices="tripinfo_12" vType="DEFAULT_VEHTYPE" speedFactor="0.92" vaporized=""/>
    <tripinfo id="8" depart="29.00" departLane="-778823268#1_0" departPos="5.10" departSpeed="0.00" departDelay="0.20" arrival="174.00" arrivalLane="668307633#3_2" arrivalPos="112.63" arrivalSpeed="14.73" duration="145.00" routeLength="595.69" waitingTime="84.00" waitingCount="2" stopTime="0.00" timeLoss="99.75" rerouteNo="0" devices="tripinfo_8" vType="DEFAULT_VEHTYPE" speedFactor="0.91" vaporized=""/>
    <tripinfo id="7" depart="26.00" departLane="448266581#0_0" departPos="5.10" departSpeed="0.00" departDelay="0.80" arrival="176.00" arrivalLane="668307633#3_0" arrivalPos="112.63" arrivalSpeed="12.47" duration="150.00" routeLength="489.91" waitingTime="105.00" waitingCount="1" stopTime="0.00" timeLoss="111.65" rerouteNo="0" devices="tripinfo_7" vType="DEFAULT_VEHTYPE" speedFactor="0.78" vaporized=""/>
    <tripinfo id="10" depart="36.00" departLane="668307639#0_0" departPos="5.10" departSpeed="0.00" departDelay="0.00" arrival="176.00" arrivalLane="778823268#0_0" arrivalPos="238.22" arrivalSpeed="13.20" duration="140.00" routeLength="503.37" waitingTime="95.00" waitingCount="1" stopTime="0.00" timeLoss="105.99" rerouteNo="0" devices="tripinfo_10" vType="DEFAULT_VEHTYPE" speedFactor="1.03" vaporized=""/>
    <tripinfo id="27" depart="98.00" departLane="448266581#0_0" departPos="5.10" departSpeed="0.00" departDelay="0.80" arrival="178.00" arrivalLane="668307633#3_0" arrivalPos="112.63" arrivalSpeed="16.48" duration="80.00" routeLength="489.91" waitingTime="38.00" waitingCount="1" stopTime="0.00" timeLoss="51.49" rerouteNo="0" devices="tripinfo_27" vType="DEFAULT_VEHTYPE" speedFactor="1.06" vaporized=""/>
    <tripinfo id="40" depart="144.00" departLane="448266581#0_0" departPos="5.10" departSpeed="0.00" departDelay="0.00" arrival="179.00" arrivalLane="119238385#0_0" arrivalPos="144.87" arrivalSpeed="13.43" duration="35.00" routeLength="416.20" waitingTime="0.00" waitingCount="0" stopTime="0.00" timeLoss="6.99" rerouteNo="0" devices="tripinfo_40" vType="DEFAULT_VEHTYPE" speedFactor="1.04" vaporized=""/>
    <tripinfo id="32" depart="116.00" departLane="668307639#0_0" departPos="5.10" departSpeed="0.00" departDelay="0.80" arrival="180.00" arrivalLane="778823268#0_1" arrivalPos="238.22" arrivalSpeed="15.00" duration="64.00" routeLength="507.41" waitingTime="19.00" waitingCount="1" stopTime="0.00" timeLoss="33.47" rerouteNo="0" devices="tripinfo_32" vType="DEFAULT_VEHTYPE" speedFactor="1.13" vaporized=""/>
    <tripinfo id="38" depart="137.00" departLane="668307639#0_0" departPos="5.10" departSpeed="0.00" departDelay="0.20" arrival="181.00" arrivalLane="44499684#3_0" arrivalPos="84.04" arrivalSpeed="14.71" duration="44.00" routeLength="485.82" waitingTime="0.00" waitingCount="0" stopTime="0.00" timeLoss="11.07" rerouteNo="0" devices="tripinfo_38" vType="DEFAULT_VEHTYPE" speedFactor="0.92" vaporized=""/>
    <tripinfo id="15" depart="54.00" departLane="668307639#0_0" departPos="5.10" departSpeed="0.00" departDelay="0.00" arrival="183.00" arrivalLane="778823268#0_0" arrivalPos="238.22" arrivalSpeed="11.97" duration="129.00" routeLength="503.37" waitingTime="78.00" waitingCount="1" stopTime="0.00" timeLoss="90.22" rerouteNo="0" devices="tripinfo_15" vType="DEFAULT_VEHTYPE" speedFactor="0.91" vaporized=""/>
    <tripinfo id="42" depart="152.00" departLane="232079775#2_0" departPos="5.10" departSpeed="0.00" departDelay="0.80" arrival="193.00" arrivalLane="119238385#0_0" arrivalPos="144.87" arrivalSpeed="14.67" duration="41.00" routeLength="347.78" waitingTime="7.00" waitingCount="1" stopTime="0.00" timeLoss="17.43" rerouteNo="0" devices="tripinfo_42" vType="DEFAULT_VEHTYPE" speedFactor="1.06" vaporized=""/>
    <tripinfo id="9" depart="33.00" departLane="668307639#0_0" departPos="5.10" departSpeed="0.00" departDelay="0.60" arrival="198.00" arrivalLane="119238380#0_0" arrivalPos="135.86" arrivalSpeed="10.36" duration="165.00" routeLength="497.82" waitingTime="104.00" waitingCount="3" stopTime="0.00" timeLoss="121.44" rerouteNo="0" devices="tripinfo_9" vType="DEFAULT_VEHTYPE" speedFactor="0.78" vaporized=""/>
    <tripinfo id="44" depart="159.00" departLane="-778823268#1_0" departPos="5.10" departSpeed="0.00" departDelay="0.60" arrival="200.00" arrivalLane="119238380#0_0" arrivalPos="135.86" arrivalSpeed="13.04" duration="41.00" routeLength="461.48" waitingTime="0.00" waitingCount="0" stopTime="0.00" timeLoss="5.85" rerouteNo="0" devices="tripinfo_44" vType="DEFAULT_VEHTYPE" speedFactor="0.97" vaporized=""/>
    <tripinfo id="36" depart="130.00" departLane="668307639#0_0" departPos="5.10" departSpeed="0.00" departDelay="0.40" arrival="204.00" arrivalLane="119238385#0_0" arrivalPos="144.87" arrivalSpeed="12.10" duration="74.00" routeLength="556.93" waitingTime="8.00" waitingCount="3" stopTime="0.00" timeLoss="31.37" rerouteNo="0" devices="tripinfo_36" vType="DEFAULT_VEHTYPE" speedFactor="0.92" vaporized=""/>
    <tripinfo id="47" depart="170.00" departLane="-778823268#1_0" departPos="5.10" departSpeed="0.00" departDelay="0.80" arrival="215.00" arrivalLane="44499684#3_0" arrivalPos="84.04" arrivalSpeed="13.33" duration="45.00" routeLength="453.00" waitingTime="0.00" waitingCount="0" stopTime="0.00" timeLoss="7.75" rerouteNo="0" devices="tripinfo_47" vType="DEFAULT_VEHTYPE" speedFactor="0.84" vaporized=""/>
    <tripinfo id="37" depart="134.00" departLane="448266581#0_0" departPos="5.10" departSpeed="0.00" departDelay="0.80" arrival="216.00" arrivalLane="44499684#3_2" arrivalPos="84.04" arrivalSpeed="15.93" duration="82.00" routeLength="508.78" waitingTime="25.00" waitingCount="3" stopTime="0.00" timeLoss="48.65" rerouteNo="0" devices="tripinfo_37" vType="DEFAULT_VEHTYPE" speedFactor="1.02" vaporized=""/>
    <tripinfo id="24" depart="87.00" departLane="448266581#0_0" departPos="5.10" departSpeed="0.00" departDelay="0.60" arrival="217.00" arrivalLane="44499684#3_1" arrivalPos="84.04" arrivalSpeed="16.02" duration="130.00" routeLength="512.41" waitingTime="78.00" waitingCount="2" stopTime="0.00" timeLoss="95.24" rerouteNo="0" devices="tripinfo_24" vType="DEFAULT_VEHTYPE" speedFactor="0.99" vaporized=""/>
    <tripinfo id="41" depart="148.00" departLane="448266581#0_0" departPos="5.10" departSpeed="0.00" departDelay="0.40" arrival="217.00" arrivalLane="E1_1" arrivalPos="103.00" arrivalSpeed="12.72" duration="69.00" routeLength="448.81" waitingTime="22.00" waitingCount="1" stopTime="0.00" timeLoss="36.80" rerouteNo="0" devices="tripinfo_41" vType="DEFAULT_VEHTYPE" speedFactor="1.00" vaporized=""/>
    <tripinfo id="46" depart="166.00" departLane="668307639#0_0" departPos="5.10" departSpeed="0.00" departDelay="0.40" arrival="220.00" arrivalLane="44499684#3_0" arrivalPos="84.04" arrivalSpeed="12.92" duration="54.00" routeLength="485.82" waitingTime="7.00" waitingCount="1" stopTime="0.00" timeLoss="16.67" rerouteNo="0" devices="tripinfo_46" vType="DEFAULT_VEHTYPE" speedFactor="0.80" vaporized=""/>
    <tripinfo id="49" depart="177.00" departLane="668307639#0_0" departPos="5.10" departSpeed="0.00" departDelay="0.60" arrival="225.00" arrivalLane="E1_1" arrivalPos="103.00" arrivalSpeed="13.21" duration="48.00" routeLength="413.41" waitingTime="5.00" waitingCount="2" stopTime="0.00" timeLoss="19.73" rerouteNo="0" devices="tripinfo_49" vType="DEFAULT_VEHTYPE" speedFactor="1.00" vaporized=""/>
    <tripinfo id="53" depart="191.00" departLane="-778823268#1_0" departPos="5.10" departSpeed="0.00" departDelay="0.20" arrival="227.00" arrivalLane="44499684#3_0" arrivalPos="84.04" arrivalSpeed="20.42" duration="36.00" routeLength="453.00" waitingTime="0.00" waitingCount="0" stopTime="0.00" timeLoss="10.73" rerouteNo="0" devices="tripinfo_53" vType="DEFAULT_VEHTYPE" speedFactor="1.26" vaporized=""/>
    <tripinfo id="52" depart="188.00" departLane="232079775#2_0" departPos="5.10" departSpeed="0.00" departDelay="0.80" arrival="230.00" arrivalLane="668307633#3_0" arrivalPos="112.63" arrivalSpeed="14.94" duration="42.00" routeLength="455.41" waitingTime="0.00" waitingCount="0" stopTime="0.00" timeLoss="8.57" rerouteNo="0" devices="tripinfo_52" vType="DEFAULT_VEHTYPE" speedFactor="0.93" vaporized=""/>
    <tripinfo id="56" depart="202.00" departLane="448266581#0_0" departPos="5.10" departSpeed="0.00" departDelay="0.40" arrival="237.00" arrivalLane="119238385#0_0" arrivalPos="144.87" arrivalSpeed="13.15" duration="35.00" routeLength="416.20" waitingTime="0.00" waitingCount="0" stopTime="0.00" timeLoss="6.07" rerouteNo="0" devices="tripinfo_56" vType="DEFAULT_VEHTYPE" speedFactor="1.01" vaporized=""/>
    <tripinfo id="57" depart="206.00" departLane="668307639#0_0" departPos="5.10" departSpeed="0.00" departDelay="0.80" arrival="243.00" arrivalLane="E1_1" arrivalPos="103.00" arrivalSpeed="15.25" duration="37.00" routeLength="411.03" waitingTime="0.00" waitingCount="0" stopTime="0.00" timeLoss="11.43" rerouteNo="0" devices="tripinfo_57" vType="DEFAULT_VEHTYPE" speedFactor="1.10" vaporized=""/>
    <tripinfo id="14" depart="51.00" departLane="668307639#0_0" departPos="5.10" departSpeed="0.00" departDelay="0.60" arrival="247.00" arrivalLane="668307633#3_0" arrivalPos="112.63" arrivalSpeed="15.51" duration="196.00" routeLength="623.09" waitingTime="132.00" waitingCount="3" stopTime="0.00" timeLoss="155.14" rerouteNo="0" devices="tripinfo_14" vType="DEFAULT_VEHTYPE" speedFactor="1.00" vaporized=""/>
    <tripinfo id="30" depart="108.00" departLane="668307639#0_0" departPos="5.10" departSpeed="0.00" departDelay="0.00" arrival="248.00" arrivalLane="668307633#3_2" arrivalPos="112.63" arrivalSpeed="15.38" duration="140.00" routeLength="623.09" waitingTime="61.00" waitingCount="4" stopTime="0.00" timeLoss="99.24" rerouteNo="0" devices="tripinfo_30" vType="DEFAULT_VEHTYPE" speedFactor="0.99" vaporized=""/>
    <tripinfo id="19" depart="69.00" departLane="668307639#0_0" departPos="5.10" departSpeed="0.00" departDelay="0.60" arrival="249.00" arrivalLane="668307633#3_1" arrivalPos="112.63" arrivalSpeed="14.54" duration="180.00" routeLength="623.09" waitingTime="103.00" waitingCount="4" stopTime="0.00" timeLoss="135.21" rerouteNo="0" devices="tripinfo_19" vType="DEFAULT_VEHTYPE" speedFactor="0.90" vaporized=""/>
    <tripinfo id="51" depart="184.00" departLane="448266581#0_0" departPos="5.10" departSpeed="0.00" departDelay="0.40" arrival="249.00" arrivalLane="668307633#3_0" arrivalPos="112.63" arrivalSpeed="17.14" duration="65.00" routeLength="489.91" waitingTime="18.00" waitingCount="2" stopTime="0.00" timeLoss="37.54" rerouteNo="0" devices="tripinfo_51" vType="DEFAULT_VEHTYPE" speedFactor="1.11" vaporized=""/>
    <tripinfo id="31" depart="112.00" departLane="448266581#0_0" departPos="5.10" departSpeed="0.00" departDelay="0.40" arrival="250.00" arrivalLane="778823268#0_0" arrivalPos="238.22" arrivalSpeed="12.70" duration="138.00" routeLength="547.37" waitingTime="71.00" waitingCount="4" stopTime="0.00" timeLoss="96.55" rerouteNo="0" devices="tripinfo_31" vType="DEFAULT_VEHTYPE" speedFactor="0.94" vaporized=""/>
    <tripinfo id="43" depart="155.00" departLane="668307639#0_0" departPos="5.10" departSpeed="0.00" departDelay="0.20" arrival="251.00" arrivalLane="668307633#3_1" arrivalPos="112.63" arrivalSpeed="15.82" duration="96.00" routeLength="623.09" waitingTime="34.00" waitingCount="2" stopTime="0.00" timeLoss="53.72" rerouteNo="0" devices="tripinfo_43" vType="DEFAULT_VEHTYPE" speedFactor="0.97" vaporized=""/>
    <tripinfo id="45" depart="162.00" departLane="-778823268#1_0" departPos="5.10" departSpeed="0.00" departDelay="0.00" arrival="252.00" arrivalLane="668307633#3_2" arrivalPos="112.63" arrivalSpeed="13.72" duration="90.00" routeLength="595.69" waitingTime="26.00" waitingCount="2" stopTime="0.00" timeLoss="42.70" rerouteNo="0" devices="tripinfo_45" vType="DEFAULT_VEHTYPE" speedFactor="0.87" vaporized=""/>
    <tripinfo id="55" depart="198.00" departLane="668307639#0_0" departPos="5.10" departSpeed="0.00" departDelay="0.00" arrival="252.00" arrivalLane="119238385#0_0" arrivalPos="144.87" arrivalSpeed="10.67" duration="54.00" routeLength="556.93" waitingTime="0.00" waitingCount="0" stopTime="0.00" timeLoss="8.94" rerouteNo="0" devices="tripinfo_55" vType="DEFAULT_VEHTYPE" speedFactor="0.86" vaporized=""/>
    <tripinfo id="18" depart="65.00" departLane="668307639#0_0" departPos="5.10" departSpeed="0.00" departDelay="0.20" arrival="253.00" arrivalLane="668307633#3_1" arrivalPos="112.63" arrivalSpeed="17.11" duration="188.00" routeLength="623.09" waitingTime="122.00" waitingCount="5" stopTime="0.00" timeLoss="149.36" rerouteNo="0" devices="tripinfo_18" vType="DEFAULT_VEHTYPE" speedFactor="1.05" vaporized=""/>
    <tripinfo id="58" depart="209.00" departLane="232079775#2_0" departPos="5.10" departSpeed="0.00" departDelay="0.20" arrival="255.00" arrivalLane="668307633#3_0" arrivalPos="112.63" arrivalSpeed="14.95" duration="46.00" routeLength="455.41" waitingTime="3.00" waitingCount="1" stopTime="0.00" timeLoss="13.88" rerouteNo="0" devices="tripinfo_58" vType="DEFAULT_VEHTYPE" speedFactor="0.95" vaporized=""/>
    <tripinfo id="63" depart="227.00" departLane="-778823268#1_0" departPos="5.10" departSpeed="0.00" departDelay="0.20" arrival="258.00" arrivalLane="E1_0" arrivalPos="103.00" arrivalSpeed="14.72" duration="31.00" routeLength="369.88" waitingTime="0.00" waitingCount="0" stopTime="0.00" timeLoss="6.55" rerouteNo="0" devices="tripinfo_63" vType="DEFAULT_VEHTYPE" speedFactor="1.11" vaporized=""/>
    <tripinfo id="48" depart="173.00" departLane="668307639#0_0" departPos="5.10" departSpeed="0.00" departDelay="0.20" arrival="261.00" arrivalLane="668307633#3_1" arrivalPos="112.63" arrivalSpeed="13.12" duration="88.00" routeLength="623.09" waitingTime="18.00" waitingCount="3" stopTime="0.00" timeLoss="39.40" rerouteNo="0" devices="tripinfo_48" vType="DEFAULT_VEHTYPE" speedFactor="0.83" vaporized=""/>
    <tripinfo id="62" depart="224.00" departLane="-778823268#1_0" departPos="5.10" departSpeed="0.00" departDelay="0.80" arrival="267.00" arrivalLane="119238385#0_0" arrivalPos="144.87" arrivalSpeed="13.82" duration="43.00" routeLength="522.97" waitingTime="0.00" waitingCount="0" stopTime="0.00" timeLoss="5.76" rerouteNo="0" devices="tripinfo_62" vType="DEFAULT_VEHTYPE" speedFactor="1.05" vaporized=""/>
    <tripinfo id="67" depart="242.00" departLane="-778823268#1_0" departPos="5.10" departSpeed="0.00" departDelay="0.80" arrival="277.00" arrivalLane="44499684#3_0" arrivalPos="84.04" arrivalSpeed="18.66" duration="35.00" routeLength="453.00" waitingTime="0.00" waitingCount="0" stopTime="0.00" timeLoss="7.82" rerouteNo="0" devices="tripinfo_67" vType="DEFAULT_VEHTYPE" speedFactor="1.17" vaporized=""/>
    <tripinfo id="50" depart="180.00" departLane="-778823268#1_0" departPos="5.10" departSpeed="0.00" departDelay="0.00" arrival="278.00" arrivalLane="778823268#0_1" arrivalPos="238.22" arrivalSpeed="13.09" duration="98.00" routeLength="659.30" waitingTime="30.00" waitingCount="2" stopTime="0.00" timeLoss="49.64" rerouteNo="0" devices="tripinfo_50" vType="DEFAULT_VEHTYPE" speedFactor="1.01" vaporized=""/>
    <tripinfo id="54" depart="195.00" departLane="232079775#2_0" departPos="5.10" departSpeed="0.00" departDelay="0.60" arrival="280.00" arrivalLane="E1_1" arrivalPos="103.00" arrivalSpeed="14.51" duration="85.00" routeLength="382.90" waitingTime="40.00" waitingCount="3" stopTime="0.00" timeLoss="58.52" rerouteNo="0" devices="tripinfo_54" vType="DEFAULT_VEHTYPE" speedFactor="1.07" vaporized=""/>
    <tripinfo id="59" depart="213.00" departLane="448266581#0_0" departPos="5.10" departSpeed="0.00" departDelay="0.60" arrival="294.00" arrivalLane="119238380#0_0" arrivalPos="135.86" arrivalSpeed="14.95" duration="81.00" routeLength="354.71" waitingTime="46.00" waitingCount="1" stopTime="0.00" timeLoss="59.21" rerouteNo="0" devices="tripinfo_59" vType="DEFAULT_VEHTYPE" speedFactor="1.10" vaporized=""/>
    <tripinfo id="60" depart="216.00" departLane="668307639#0_0" departPos="5.10" departSpeed="0.00" departDelay="0.00" arrival="296.00" arrivalLane="668307633#3_0" arrivalPos="112.63" arrivalSpeed="18.78" duration="80.00" routeLength="623.09" waitingTime="28.00" waitingCount="1" stopTime="0.00" timeLoss="45.62" rerouteNo="0" devices="tripinfo_60" vType="DEFAULT_VEHTYPE" speedFactor="1.18" vaporized=""/>
    <tripinfo id="61" depart="220.00" departLane="668307639#0_0" departPos="5.10" departSpeed="0.00" departDelay="0.40" arrival="296.00" arrivalLane="668307633#3_1" arrivalPos="112.63" arrivalSpeed="17.98" duration="76.00" routeLength="625.14" waitingTime="18.00" waitingCount="2" stopTime="0.00" timeLoss="40.41" rerouteNo="0" devices="tripinfo_61" vType="DEFAULT_VEHTYPE" speedFactor="1.15" vaporized=""/>
    <tripinfo id="72" depart="260.00" departLane="232079775#2_0" departPos="5.10" departSpeed="0.00" departDelay="0.80" arrival="298.00" arrivalLane="119238385#0_0" arrivalPos="144.87" arrivalSpeed="13.54" duration="38.00" routeLength="347.78" waitingTime="0.00" waitingCount="0" stopTime="0.00" timeLoss="11.75" rerouteNo="0" devices="tripinfo_72" vType="DEFAULT_VEHTYPE" speedFactor="0.98" vaporized=""/>
    <tripinfo id="64" depart="231.00" departLane="668307639#0_0" departPos="5.10" departSpeed="0.00" departDelay="0.60" arrival="299.00" arrivalLane="778823268#0_0" arrivalPos="238.22" arrivalSpeed="14.83" duration="68.00" routeLength="503.37" waitingTime="24.00" waitingCount="1" stopTime="0.00" timeLoss="36.64" rerouteNo="0" devices="tripinfo_64" vType="DEFAULT_VEHTYPE" speedFactor="1.10" vaporized=""/>
    <tripinfo id="66" depart="238.00" departLane="668307639#0_0" departPos="5.10" departSpeed="0.00" departDelay="0.40" arrival="301.00" arrivalLane="E1_0" arrivalPos="103.00" arrivalSpeed="12.05" duration="63.00" routeLength="412.33" waitingTime="20.00" waitingCount="2" stopTime="0.00" timeLoss="33.36" rerouteNo="0" devices="tripinfo_66" vType="DEFAULT_VEHTYPE" speedFactor="0.95" vaporized=""/>
    <tripinfo id="70" depart="252.00" departLane="232079775#2_0" departPos="5.10" departSpeed="0.00" departDelay="0.00" arrival="302.00" arrivalLane="668307633#3_0" arrivalPos="112.63" arrivalSpeed="15.87" duration="50.00" routeLength="455.41" waitingTime="8.00" waitingCount="1" stopTime="0.00" timeLoss="19.75" rerouteNo="0" devices="tripinfo_70" vType="DEFAULT_VEHTYPE" speedFactor="1.01" vaporized=""/>