<?xml version="1.0" encoding="UTF-8"?>

<!-- generated on 2024-09-02 17:51:56 by Eclipse SUMO sumo Version 1.20.0
<configuration xmlns:xsi="http://www.w3.org/2001/XMLSchema-instance" xsi:noNamespaceSchemaLocation="http://sumo.dlr.de/xsd/sumoConfiguration.xsd">

    <input>
        <net-file value="c:\self\School\Master\Disertation\code\RESCO\resco_benchmark\environments/unirii/osm.net.xml.gz"/>
        <route-files value="c:\self\School\Master\Disertation\code\RESCO\resco_benchmark\environments/unirii/osm.passenger.trips.xml"/>
        <additional-files value="c:\self\School\Master\Disertation\code\RESCO\resco_benchmark\environments/unirii/osm.poly.xml.gz"/>
    </input>

    <output>
        <tripinfo-output value="C:\self\School\Master\Disertation\code\RESCO\results\IDQN-tr0-unirii-0-drq_norm-wait_norm\tripinfo_45.xml"/>
        <tripinfo-output.write-unfinished value="true"/>
    </output>

    <processing>
        <ignore-route-errors value="true"/>
        <time-to-teleport value="-1"/>
    </processing>

    <routing>
        <device.rerouting.adaptation-steps value="18"/>
        <device.rerouting.adaptation-interval value="10"/>
    </routing>

    <report>
        <verbose value="true"/>
        <no-warnings value="True"/>
        <duration-log.statistics value="true"/>
        <no-step-log value="True"/>
    </report>

    <traci_server>
        <remote-port value="51735"/>
    </traci_server>

    <random_number>
        <random value="true"/>
    </random_number>

    <gui_only>
        <gui-settings-file value="c:\self\School\Master\Disertation\code\RESCO\resco_benchmark\environments/unirii/osm.view.xml"/>
    </gui_only>

</configuration>
-->

<tripinfos xmlns:xsi="http://www.w3.org/2001/XMLSchema-instance" xsi:noNamespaceSchemaLocation="http://sumo.dlr.de/xsd/tripinfo_file.xsd">
    <tripinfo id="10" depart="23.00" departLane="978867529_0" departPos="5.10" departSpeed="0.00" departDelay="1.82" arrival="63.00" arrivalLane="231177697#0_1" arrivalPos="74.44" arrivalSpeed="11.17" duration="40.00" routeLength="437.06" waitingTime="0.00" waitingCount="0" stopTime="0.00" timeLoss="5.70" rerouteNo="0" devices="tripinfo_10" vType="DEFAULT_VEHTYPE" speedFactor="0.83" vaporized=""/>
    <tripinfo id="15" depart="33.00" departLane="978867529_0" departPos="5.10" departSpeed="0.00" departDelay="1.24" arrival="65.00" arrivalLane="231177697#0_1" arrivalPos="74.44" arrivalSpeed="14.73" duration="32.00" routeLength="437.06" waitingTime="0.00" waitingCount="0" stopTime="0.00" timeLoss="6.39" rerouteNo="0" devices="tripinfo_15" vType="DEFAULT_VEHTYPE" speedFactor="1.14" vaporized=""/>
    <tripinfo id="16" depart="34.00" departLane="256961141#0_0" departPos="5.10" departSpeed="0.00" departDelay="0.12" arrival="92.00" arrivalLane="450554042#0_1" arrivalPos="622.66" arrivalSpeed="17.87" duration="58.00" routeLength="853.74" waitingTime="0.00" waitingCount="0" stopTime="0.00" timeLoss="7.58" rerouteNo="0" devices="tripinfo_16" vType="DEFAULT_VEHTYPE" speedFactor="1.08" vaporized=""/>
    <tripinfo id="0" depart="0.00" departLane="65746828#0_0" departPos="5.10" departSpeed="0.00" departDelay="0.00" arrival="100.00" arrivalLane="-256961141#1_1" arrivalPos="204.72" arrivalSpeed="12.89" duration="100.00" routeLength="931.50" waitingTime="20.00" waitingCount="1" stopTime="0.00" timeLoss="32.83" rerouteNo="0" devices="tripinfo_0" vType="DEFAULT_VEHTYPE" speedFactor="0.94" vaporized=""/>
    <tripinfo id="4" depart="9.00" departLane="-661251539_0" departPos="5.10" departSpeed="0.00" departDelay="0.53" arrival="102.00" arrivalLane="-256961141#1_1" arrivalPos="204.72" arrivalSpeed="12.30" duration="93.00" routeLength="872.91" waitingTime="15.00" waitingCount="1" stopTime="0.00" timeLoss="28.83" rerouteNo="0" devices="tripinfo_4" vType="DEFAULT_VEHTYPE" speedFactor="0.95" vaporized=""/>
    <tripinfo id="6" depart="13.00" departLane="-218680176#1_0" departPos="5.10" departSpeed="0.00" departDelay="0.29" arrival="103.00" arrivalLane="153964138#0_2" arrivalPos="337.99" arrivalSpeed="17.19" duration="90.00" routeLength="462.27" waitingTime="52.00" waitingCount="1" stopTime="0.00" timeLoss="61.50" rerouteNo="0" devices="tripinfo_6" vType="DEFAULT_VEHTYPE" speedFactor="1.06" vaporized=""/>
    <tripinfo id="2" depart="5.00" departLane="666135205#0_0" departPos="5.10" departSpeed="0.00" departDelay="0.76" arrival="112.00" arrivalLane="231177697#0_0" arrivalPos="74.44" arrivalSpeed="13.41" duration="107.00" routeLength="649.17" waitingTime="43.00" waitingCount="2" stopTime="0.00" timeLoss="57.81" rerouteNo="0" devices="tripinfo_2" vType="DEFAULT_VEHTYPE" speedFactor="0.98" vaporized=""/>
    <tripinfo id="31" depart="66.00" departLane="65746828#0_0" departPos="5.10" departSpeed="0.00" departDelay="0.35" arrival="114.00" arrivalLane="231177697#0_0" arrivalPos="74.44" arrivalSpeed="14.27" duration="48.00" routeLength="558.79" waitingTime="0.00" waitingCount="0" stopTime="0.00" timeLoss="10.55" rerouteNo="0" devices="tripinfo_31" vType="DEFAULT_VEHTYPE" speedFactor="1.10" vaporized=""/>
    <tripinfo id="3" depart="7.00" departLane="E8_0" departPos="5.10" departSpeed="0.00" departDelay="0.65" arrival="121.00" arrivalLane="-256961141#1_0" arrivalPos="204.72" arrivalSpeed="13.77" duration="114.00" routeLength="832.89" waitingTime="44.00" waitingCount="1" stopTime="0.00" timeLoss="55.63" rerouteNo="0" devices="tripinfo_3" vType="DEFAULT_VEHTYPE" speedFactor="1.04" vaporized=""/>
    <tripinfo id="11" depart="24.00" departLane="-661251539_0" departPos="5.10" departSpeed="0.00" departDelay="0.71" arrival="127.00" arrivalLane="153964138#0_0" arrivalPos="337.99" arrivalSpeed="17.34" duration="103.00" routeLength="1239.04" waitingTime="11.00" waitingCount="1" stopTime="0.00" timeLoss="24.88" rerouteNo="0" devices="tripinfo_11" vType="DEFAULT_VEHTYPE" speedFactor="1.10" vaporized=""/>
    <tripinfo id="35" depart="75.00" departLane="-226276377#1_0" departPos="5.10" departSpeed="0.00" departDelay="0.88" arrival="136.00" arrivalLane="450554042#0_0" arrivalPos="622.66" arrivalSpeed="17.78" duration="61.00" routeLength="763.53" waitingTime="7.00" waitingCount="1" stopTime="0.00" timeLoss="18.71" rerouteNo="0" devices="tripinfo_35" vType="DEFAULT_VEHTYPE" speedFactor="1.14" vaporized=""/>
    <tripinfo id="30" depart="64.00" departLane="E8_0" departPos="5.10" departSpeed="0.00" departDelay="0.47" arrival="142.00" arrivalLane="226276377#0_1" arrivalPos="135.52" arrivalSpeed="14.73" duration="78.00" routeLength="784.51" waitingTime="14.00" waitingCount="1" stopTime="0.00" timeLoss="24.73" rerouteNo="0" devices="tripinfo_30" vType="DEFAULT_VEHTYPE" speedFactor="1.08" vaporized=""/>
    <tripinfo id="9" depart="20.00" departLane="978867529_0" departPos="5.10" departSpeed="0.00" departDelay="0.94" arrival="147.00" arrivalLane="-256961141#1_1" arrivalPos="204.72" arrivalSpeed="13.96" duration="127.00" routeLength="1459.36" waitingTime="25.00" waitingCount="1" stopTime="0.00" timeLoss="38.22" rerouteNo="0" devices="tripinfo_9" vType="DEFAULT_VEHTYPE" speedFactor="1.09" vaporized=""/>
    <tripinfo id="50" depart="106.00" departLane="-218680176#1_0" departPos="5.10" departSpeed="0.00" departDelay="0.12" arrival="150.00" arrivalLane="231177697#0_0" arrivalPos="74.44" arrivalSpeed="14.33" duration="44.00" routeLength="205.97" waitingTime="16.00" waitingCount="1" stopTime="0.00" timeLoss="30.26" rerouteNo="0" devices="tripinfo_50" vType="DEFAULT_VEHTYPE" speedFactor="1.10" vaporized=""/>
    <tripinfo id="20" depart="43.00" departLane="666135205#0_0" departPos="5.10" departSpeed="0.00" departDelay="0.65" arrival="152.00" arrivalLane="-256961141#1_1" arrivalPos="204.72" arrivalSpeed="11.69" duration="109.00" routeLength="1068.72" waitingTime="12.00" waitingCount="2" stopTime="0.00" timeLoss="28.39" rerouteNo="0" devices="tripinfo_20" vType="DEFAULT_VEHTYPE" speedFactor="0.89" vaporized=""/>
    <tripinfo id="1" depart="3.00" departLane="-231177697#2_0" departPos="5.10" departSpeed="0.00" departDelay="0.88" arrival="155.00" arrivalLane="210831345#1_1" arrivalPos="264.29" arrivalSpeed="11.69" duration="152.00" routeLength="696.92" waitingTime="82.00" waitingCount="2" stopTime="0.00" timeLoss="96.76" rerouteNo="0" devices="tripinfo_1" vType="DEFAULT_VEHTYPE" speedFactor="0.93" vaporized=""/>
    <tripinfo id="21" depart="45.00" departLane="-231177697#2_0" departPos="5.10" departSpeed="0.00" departDelay="0.53" arrival="155.00" arrivalLane="210831345#1_0" arrivalPos="264.29" arrivalSpeed="15.39" duration="110.00" routeLength="696.92" waitingTime="40.00" waitingCount="2" stopTime="0.00" timeLoss="64.39" rerouteNo="0" devices="tripinfo_21" vType="DEFAULT_VEHTYPE" speedFactor="1.12" vaporized=""/>
    <tripinfo id="12" depart="26.00" departLane="E8_0" departPos="5.10" departSpeed="0.00" departDelay="0.59" arrival="157.00" arrivalLane="210831347#0_1" arrivalPos="149.88" arrivalSpeed="13.32" duration="131.00" routeLength="1367.17" waitingTime="25.00" waitingCount="1" stopTime="0.00" timeLoss="38.15" rerouteNo="0" devices="tripinfo_12" vType="DEFAULT_VEHTYPE" speedFactor="1.02" vaporized=""/>
    <tripinfo id="34" depart="72.00" departLane="-231177697#2_0" departPos="5.10" departSpeed="0.00" departDelay="0.00" arrival="157.00" arrivalLane="210831345#1_1" arrivalPos="264.29" arrivalSpeed="14.63" duration="85.00" routeLength="696.92" waitingTime="16.00" waitingCount="1" stopTime="0.00" timeLoss="38.95" rerouteNo="0" devices="tripinfo_34" vType="DEFAULT_VEHTYPE" speedFactor="1.12" vaporized=""/>
    <tripinfo id="39" depart="83.00" departLane="-231177697#2_0" departPos="5.10" departSpeed="0.00" departDelay="0.41" arrival="159.00" arrivalLane="210831345#1_1" arrivalPos="264.29" arrivalSpeed="14.36" duration="76.00" routeLength="696.92" waitingTime="14.00" waitingCount="1" stopTime="0.00" timeLoss="29.07" rerouteNo="0" devices="tripinfo_39" vType="DEFAULT_VEHTYPE" speedFactor="1.10" vaporized=""/>
    <tripinfo id="13" depart="28.00" departLane="-218680176#1_0" departPos="5.10" departSpeed="0.00" departDelay="0.47" arrival="162.00" arrivalLane="-256961141#1_1" arrivalPos="204.72" arrivalSpeed="13.51" duration="134.00" routeLength="1207.38" waitingTime="33.00" waitingCount="2" stopTime="0.00" timeLoss="50.84" rerouteNo="0" devices="tripinfo_13" vType="DEFAULT_VEHTYPE" speedFactor="0.99" vaporized=""/>
    <tripinfo id="33" depart="70.00" departLane="-231177697#2_0" departPos="5.10" departSpeed="0.00" departDelay="0.12" arrival="163.00" arrivalLane="-256961141#1_1" arrivalPos="204.72" arrivalSpeed="15.35" duration="93.00" routeLength="1204.36" waitingTime="0.00" waitingCount="0" stopTime="0.00" timeLoss="24.32" rerouteNo="0" devices="tripinfo_33" vType="DEFAULT_VEHTYPE" speedFactor="1.18" vaporized=""/>
    <tripinfo id="32" depart="68.00" departLane="978867529_0" departPos="5.10" departSpeed="0.00" departDelay="0.24" arrival="164.00" arrivalLane="231177697#0_1" arrivalPos="74.44" arrivalSpeed="10.89" duration="96.00" routeLength="437.06" waitingTime="53.00" waitingCount="1" stopTime="0.00" timeLoss="62.54" rerouteNo="0" devices="tripinfo_32" vType="DEFAULT_VEHTYPE" speedFactor="0.85" vaporized=""/>
    <tripinfo id="36" depart="77.00" departLane="978867529_0" departPos="5.10" departSpeed="0.00" departDelay="0.76" arrival="165.00" arrivalLane="210831345#1_0" arrivalPos="264.29" arrivalSpeed="11.70" duration="88.00" routeLength="951.92" waitingTime="0.00" waitingCount="0" stopTime="0.00" timeLoss="10.70" rerouteNo="0" devices="tripinfo_36" vType="DEFAULT_VEHTYPE" speedFactor="0.84" vaporized=""/>
    <tripinfo id="7" depart="15.00" departLane="65746828#0_0" departPos="5.10" departSpeed="0.00" departDelay="0.18" arrival="166.00" arrivalLane="218680176#0_1" arrivalPos="98.94" arrivalSpeed="11.57" duration="151.00" routeLength="602.71" waitingTime="86.00" waitingCount="2" stopTime="0.00" timeLoss="102.67" rerouteNo="0" devices="tripinfo_7" vType="DEFAULT_VEHTYPE" speedFactor="0.92" vaporized=""/>
    <tripinfo id="17" depart="36.00" departLane="-661251539_0" departPos="5.10" departSpeed="0.00" departDelay="0.00" arrival="167.00" arrivalLane="218680176#0_1" arrivalPos="98.94" arrivalSpeed="12.91" duration="131.00" routeLength="1001.21" waitingTime="38.00" waitingCount="2" stopTime="0.00" timeLoss="55.57" rerouteNo="0" devices="tripinfo_17" vType="DEFAULT_VEHTYPE" speedFactor="0.97" vaporized=""/>
    <tripinfo id="5" depart="11.00" departLane="-226276377#1_0" departPos="5.10" departSpeed="0.00" departDelay="0.41" arrival="169.00" arrivalLane="218680176#0_1" arrivalPos="98.94" arrivalSpeed="13.47" duration="158.00" routeLength="1158.55" waitingTime="52.00" waitingCount="3" stopTime="0.00" timeLoss="81.08" rerouteNo="0" devices="tripinfo_5" vType="DEFAULT_VEHTYPE" speedFactor="1.05" vaporized=""/>
    <tripinfo id="40" depart="85.00" departLane="65746828#0_0" departPos="5.10" departSpeed="0.00" departDelay="0.29" arrival="173.00" arrivalLane="210831345#1_0" arrivalPos="264.29" arrivalSpeed="15.91" duration="88.00" routeLength="446.75" waitingTime="49.00" waitingCount="1" stopTime="0.00" timeLoss="59.62" rerouteNo="0" devices="tripinfo_40" vType="DEFAULT_VEHTYPE" speedFactor="1.16" vaporized=""/>
    <tripinfo id="68" depart="144.00" departLane="-218680176#1_0" departPos="5.10" departSpeed="0.00" departDelay="0.00" arrival="184.00" arrivalLane="231177697#0_0" arrivalPos="74.44" arrivalSpeed="13.20" duration="40.00" routeLength="205.97" waitingTime="16.00" waitingCount="1" stopTime="0.00" timeLoss="23.94" rerouteNo="0" devices="tripinfo_68" vType="DEFAULT_VEHTYPE" speedFactor="0.98" vaporized=""/>
    <tripinfo id="27" depart="58.00" departLane="65746828#0_0" departPos="5.10" departSpeed="0.00" departDelay="0.82" arrival="199.00" arrivalLane="226276377#0_0" arrivalPos="135.52" arrivalSpeed="13.57" duration="141.00" routeLength="841.69" waitingTime="74.00" waitingCount="1" stopTime="0.00" timeLoss="86.32" rerouteNo="0" devices="tripinfo_27" vType="DEFAULT_VEHTYPE" speedFactor="1.03" vaporized=""/>
    <tripinfo id="22" depart="47.00" departLane="-218680176#1_0" departPos="5.10" departSpeed="0.00" departDelay="0.41" arrival="205.00" arrivalLane="210831345#1_0" arrivalPos="264.29" arrivalSpeed="12.38" duration="158.00" routeLength="699.94" waitingTime="81.00" waitingCount="3" stopTime="0.00" timeLoss="101.94" rerouteNo="0" devices="tripinfo_22" vType="DEFAULT_VEHTYPE" speedFactor="0.92" vaporized=""/>
    <tripinfo id="62" depart="132.00" departLane="-218680176#1_0" departPos="5.10" departSpeed="0.00" departDelay="0.71" arrival="209.00" arrivalLane="210831345#1_0" arrivalPos="264.29" arrivalSpeed="14.19" duration="77.00" routeLength="699.94" waitingTime="10.00" waitingCount="1" stopTime="0.00" timeLoss="29.04" rerouteNo="0" devices="tripinfo_62" vType="DEFAULT_VEHTYPE" speedFactor="1.08" vaporized=""/>
    <tripinfo id="23" depart="50.00" departLane="-218680176#1_0" departPos="5.10" departSpeed="0.00" departDelay="1.29" arrival="211.00" arrivalLane="210831345#1_0" arrivalPos="264.29" arrivalSpeed="10.36" duration="161.00" routeLength="699.94" waitingTime="76.00" waitingCount="3" stopTime="0.00" timeLoss="97.61" rerouteNo="0" devices="tripinfo_23" vType="DEFAULT_VEHTYPE" speedFactor="0.82" vaporized=""/>
    <tripinfo id="61" depart="130.00" departLane="978867529_0" departPos="5.10" departSpeed="0.00" departDelay="0.82" arrival="217.00" arrivalLane="218680176#0_0" arrivalPos="98.94" arrivalSpeed="11.27" duration="87.00" routeLength="442.15" waitingTime="44.00" waitingCount="1" stopTime="0.00" timeLoss="54.61" rerouteNo="0" devices="tripinfo_61" vType="DEFAULT_VEHTYPE" speedFactor="0.90" vaporized=""/>
    <tripinfo id="47" depart="100.00" departLane="-218680176#1_0" departPos="5.10" departSpeed="0.00" departDelay="0.47" arrival="219.00" arrivalLane="210831347#0_0" arrivalPos="149.88" arrivalSpeed="13.93" duration="119.00" routeLength="560.58" waitingTime="59.00" waitingCount="2" stopTime="0.00" timeLoss="78.18" rerouteNo="0" devices="tripinfo_47" vType="DEFAULT_VEHTYPE" speedFactor="1.01" vaporized=""/>
    <tripinfo id="26" depart="56.00" departLane="-231177697#2_0" departPos="5.10" departSpeed="0.00" departDelay="0.94" arrival="226.00" arrivalLane="450554042#0_0" arrivalPos="622.66" arrivalSpeed="13.84" duration="170.00" routeLength="1613.58" waitingTime="34.00" waitingCount="2" stopTime="0.00" timeLoss="53.85" rerouteNo="0" devices="tripinfo_26" vType="DEFAULT_VEHTYPE" speedFactor="0.89" vaporized=""/>
    <tripinfo id="69" depart="147.00" departLane="666135205#0_0" departPos="5.10" departSpeed="0.00" departDelay="0.88" arrival="227.00" arrivalLane="153964138#0_0" arrivalPos="337.99" arrivalSpeed="17.13" duration="80.00" routeLength="924.87" waitingTime="7.00" waitingCount="1" stopTime="0.00" timeLoss="19.82" rerouteNo="0" devices="tripinfo_69" vType="DEFAULT_VEHTYPE" speedFactor="1.05" vaporized=""/>
    <tripinfo id="25" depart="53.00" departLane="-661251539_0" departPos="5.10" departSpeed="0.00" departDelay="0.06" arrival="231.00" arrivalLane="153964138#0_0" arrivalPos="337.99" arrivalSpeed="14.60" duration="178.00" routeLength="1239.04" waitingTime="65.00" waitingCount="1" stopTime="0.00" timeLoss="83.06" rerouteNo="0" devices="tripinfo_25" vType="DEFAULT_VEHTYPE" speedFactor="0.91" vaporized=""/>
    <tripinfo id="49" depart="104.00" departLane="E8_0" departPos="5.10" departSpeed="0.00" departDelay="0.24" arrival="233.00" arrivalLane="39907424_0" arrivalPos="316.44" arrivalSpeed="13.07" duration="129.00" routeLength="1303.68" waitingTime="21.00" waitingCount="1" stopTime="0.00" timeLoss="36.21" rerouteNo="0" devices="tripinfo_49" vType="DEFAULT_VEHTYPE" speedFactor="0.97" vaporized=""/>
    <tripinfo id="41" depart="88.00" departLane="65746828#0_0" departPos="5.10" departSpeed="0.00" departDelay="1.18" arrival="239.00" arrivalLane="450554042#0_0" arrivalPos="622.66" arrivalSpeed="14.22" duration="151.00" routeLength="1340.72" waitingTime="45.00" waitingCount="1" stopTime="0.00" timeLoss="59.75" rerouteNo="0" devices="tripinfo_41" vType="DEFAULT_VEHTYPE" speedFactor="0.92" vaporized=""/>
    <tripinfo id="57" depart="121.00" departLane="E8_0" departPos="5.10" departSpeed="0.00" departDelay="0.29" arrival="242.00" arrivalLane="39907424_0" arrivalPos="316.44" arrivalSpeed="10.35" duration="121.00" routeLength="1303.68" waitingTime="0.00" waitingCount="0" stopTime="0.00" timeLoss="11.29" rerouteNo="0" devices="tripinfo_57" vType="DEFAULT_VEHTYPE" speedFactor="0.83" vaporized=""/>
    <tripinfo id="75" depart="159.00" departLane="E8_0" departPos="5.10" departSpeed="0.00" departDelay="0.18" arrival="242.00" arrivalLane="226276377#0_1" arrivalPos="135.52" arrivalSpeed="13.85" duration="83.00" routeLength="784.51" waitingTime="18.00" waitingCount="1" stopTime="0.00" timeLoss="28.85" rerouteNo="0" devices="tripinfo_75" vType="DEFAULT_VEHTYPE" speedFactor="1.05" vaporized=""/>
    <tripinfo id="85" depart="180.00" departLane="E8_0" departPos="5.10" departSpeed="0.00" departDelay="0.00" arrival="244.00" arrivalLane="226276377#0_1" arrivalPos="135.52" arrivalSpeed="16.64" duration="64.00" routeLength="784.51" waitingTime="3.00" waitingCount="1" stopTime="0.00" timeLoss="16.75" rerouteNo="0" devices="tripinfo_85" vType="DEFAULT_VEHTYPE" speedFactor="1.22" vaporized=""/>
    <tripinfo id="71" depart="151.00" departLane="-231177697#2_0" departPos="5.10" departSpeed="0.00" departDelay="0.65" arrival="249.00" arrivalLane="39907424_0" arrivalPos="316.44" arrivalSpeed="14.65" duration="98.00" routeLength="961.15" waitingTime="21.00" waitingCount="1" stopTime="0.00" timeLoss="35.25" rerouteNo="0" devices="tripinfo_71" vType="DEFAULT_VEHTYPE" speedFactor="1.08" vaporized=""/>
    <tripinfo id="54" depart="115.00" departLane="256961141#0_0" departPos="5.10" departSpeed="0.00" departDelay="0.65" arrival="254.00" arrivalLane="450554042#0_0" arrivalPos="622.66" arrivalSpeed="13.64" duration="139.00" routeLength="853.74" waitingTime="65.00" waitingCount="1" stopTime="0.00" timeLoss="75.02" rerouteNo="0" devices="tripinfo_54" vType="DEFAULT_VEHTYPE" speedFactor="0.85" vaporized=""/>
    <tripinfo id="79" depart="168.00" departLane="-231177697#2_0" departPos="5.10" departSpeed="0.00" departDelay="0.71" arrival="254.00" arrivalLane="153964138#0_0" arrivalPos="337.99" arrivalSpeed="15.13" duration="86.00" routeLength="417.38" waitingTime="49.00" waitingCount="1" stopTime="0.00" timeLoss="57.96" rerouteNo="0" devices="tripinfo_79" vType="DEFAULT_VEHTYPE" speedFactor="0.96" vaporized=""/>
    <tripinfo id="44" depart="94.00" departLane="-218680176#1_0" departPos="5.10" departSpeed="0.00" departDelay="0.82" arrival="261.00" arrivalLane="-256961141#1_1" arrivalPos="204.72" arrivalSpeed="15.72" duration="167.00" routeLength="1207.38" waitingTime="68.00" waitingCount="2" stopTime="0.00" timeLoss="94.09" rerouteNo="0" devices="tripinfo_44" vType="DEFAULT_VEHTYPE" speedFactor="1.13" vaporized=""/>
    <tripinfo id="78" depart="166.00" departLane="-661251539_0" departPos="5.10" departSpeed="0.00" departDelay="0.82" arrival="266.00" arrivalLane="226276377#0_0" arrivalPos="135.52" arrivalSpeed="13.93" duration="100.00" routeLength="783.10" waitingTime="34.00" waitingCount="1" stopTime="0.00" timeLoss="46.35" rerouteNo="0" devices="tripinfo_78" vType="DEFAULT_VEHTYPE" speedFactor="1.01" vaporized=""/>
    <tripinfo id="29" depart="63.00" departLane="-226276377#1_0" departPos="5.10" departSpeed="0.00" departDelay="1.59" arrival="268.00" arrivalLane="210831347#0_1" arrivalPos="149.88" arrivalSpeed="14.70" duration="205.00" routeLength="888.52" waitingTime="134.00" waitingCount="2" stopTime="0.00" timeLoss="151.21" rerouteNo="0" devices="tripinfo_29" vType="DEFAULT_VEHTYPE" speedFactor="1.15" vaporized=""/>
    <tripinfo id="18" depart="39.00" departLane="978867529_0" departPos="5.10" departSpeed="0.00" departDelay="0.88" arrival="269.00" arrivalLane="226276377#0_0" arrivalPos="135.52" arrivalSpeed="13.73" duration="230.00" routeLength="1369.55" waitingTime="118.00" waitingCount="3" stopTime="0.00" timeLoss="144.39" rerouteNo="0" devices="tripinfo_18" vType="DEFAULT_VEHTYPE" speedFactor="1.06" vaporized=""/>
    <tripinfo id="91" depart="193.00" departLane="E8_0" departPos="5.10" departSpeed="0.00" departDelay="0.29" arrival="270.00" arrivalLane="-256961141#1_0" arrivalPos="204.72" arrivalSpeed="16.03" duration="77.00" routeLength="832.89" waitingTime="14.00" waitingCount="1" stopTime="0.00" timeLoss="24.06" rerouteNo="0" devices="tripinfo_91" vType="DEFAULT_VEHTYPE" speedFactor="1.16" vaporized=""/>
    <tripinfo id="53" depart="113.00" departLane="-226276377#1_0" departPos="5.10" departSpeed="0.00" departDelay="0.76" arrival="271.00" arrivalLane="210831347#0_1" arrivalPos="149.88" arrivalSpeed="12.96" duration="158.00" routeLength="888.52" waitingTime="79.00" waitingCount="2" stopTime="0.00" timeLoss="97.47" rerouteNo="0" devices="tripinfo_53" vType="DEFAULT_VEHTYPE" speedFactor="1.01" vaporized=""/>
    <tripinfo id="19" depart="42.00" departLane="978867529_0" departPos="5.10" departSpeed="0.00" departDelay="1.76" arrival="273.00" arrivalLane="226276377#0_0" arrivalPos="135.52" arrivalSpeed="12.27" duration="231.00" routeLength="1369.55" waitingTime="103.00" waitingCount="4" stopTime="0.00" timeLoss="133.85" rerouteNo="0" devices="tripinfo_19" vType="DEFAULT_VEHTYPE" speedFactor="0.93" vaporized=""/>
    <tripinfo id="45" depart="97.00" departLane="-218680176#1_0" departPos="5.10" departSpeed="0.00" departDelay="1.71" arrival="274.00" arrivalLane="226276377#0_0" arrivalPos="135.52" arrivalSpeed="14.99" duration="177.00" routeLength="1117.57" waitingTime="72.00" waitingCount="3" stopTime="0.00" timeLoss="108.18" rerouteNo="0" devices="tripinfo_45" vType="DEFAULT_VEHTYPE" speedFactor="1.10" vaporized=""/>
    <tripinfo id="42" depart="89.00" departLane="-661251539_0" departPos="5.10" departSpeed="0.00" departDelay="0.06" arrival="278.00" arrivalLane="153964138#0_0" arrivalPos="337.99" arrivalSpeed="17.90" duration="189.00" routeLength="1239.04" waitingTime="88.00" waitingCount="2" stopTime="0.00" timeLoss="108.61" rerouteNo="0" devices="tripinfo_42" vType="DEFAULT_VEHTYPE" speedFactor="1.07" vaporized=""/>
    <tripinfo id="56" depart="119.00" departLane="256961141#0_0" departPos="5.10" departSpeed="0.00" departDelay="0.41" arrival="278.00" arrivalLane="153964138#0_1" arrivalPos="337.99" arrivalSpeed="17.42" duration="159.00" routeLength="1439.25" waitingTime="39.00" waitingCount="3" stopTime="0.00" timeLoss="66.84" rerouteNo="0" devices="tripinfo_56" vType="DEFAULT_VEHTYPE" speedFactor="1.05" vaporized=""/>
    <tripinfo id="92" depart="195.00" departLane="-661251539_0" departPos="5.10" departSpeed="0.00" departDelay="0.18" arrival="278.00" arrivalLane="210831347#0_1" arrivalPos="149.88" arrivalSpeed="13.84" duration="83.00" routeLength="731.18" waitingTime="12.00" waitingCount="1" stopTime="0.00" timeLoss="30.48" rerouteNo="0" devices="tripinfo_92" vType="DEFAULT_VEHTYPE" speedFactor="1.03" vaporized=""/>
    <tripinfo id="59" depart="125.00" departLane="65746828#0_0" departPos="5.10" departSpeed="0.00" departDelay="0.06" arrival="279.00" arrivalLane="153964138#0_2" arrivalPos="337.99" arrivalSpeed="16.04" duration="154.00" routeLength="834.49" waitingTime="85.00" waitingCount="1" stopTime="0.00" timeLoss="95.53" rerouteNo="0" devices="tripinfo_59" vType="DEFAULT_VEHTYPE" speedFactor="0.96" vaporized=""/>
    <tripinfo id="14" depart="30.00" departLane="978867529_0" departPos="5.10" departSpeed="0.00" departDelay="0.35" arrival="280.00" arrivalLane="226276377#0_0" arrivalPos="135.52" arrivalSpeed="10.26" duration="250.00" routeLength="1369.55" waitingTime="109.00" waitingCount="4" stopTime="0.00" timeLoss="141.04" rerouteNo="0" devices="tripinfo_14" vType="DEFAULT_VEHTYPE" speedFactor="0.83" vaporized=""/>
    <tripinfo id="108" depart="229.00" departLane="65746828#0_0" departPos="5.10" departSpeed="0.00" departDelay="0.29" arrival="280.00" arrivalLane="231177697#0_0" arrivalPos="74.44" arrivalSpeed="12.80" duration="51.00" routeLength="558.79" waitingTime="0.00" waitingCount="0" stopTime="0.00" timeLoss="7.56" rerouteNo="0" devices="tripinfo_108" vType="DEFAULT_VEHTYPE" speedFactor="0.95" vaporized=""/>
    <tripinfo id="55" depart="117.00" departLane="978867529_0" departPos="5.10" departSpeed="0.00" departDelay="0.53" arrival="281.00" arrivalLane="210831345#1_1" arrivalPos="264.29" arrivalSpeed="11.16" duration="164.00" routeLength="951.92" waitingTime="72.00" waitingCount="2" stopTime="0.00" timeLoss="88.79" rerouteNo="0" devices="tripinfo_55" vType="DEFAULT_VEHTYPE" speedFactor="0.87" vaporized=""/>
    <tripinfo id="58" depart="123.00" departLane="-231177697#2_0" departPos="5.10" departSpeed="0.00" departDelay="0.18" arrival="281.00" arrivalLane="226276377#0_0" arrivalPos="135.52" arrivalSpeed="12.69" duration="158.00" routeLength="1114.55" waitingTime="49.00" waitingCount="2" stopTime="0.00" timeLoss="85.72" rerouteNo="0" devices="tripinfo_58" vType="DEFAULT_VEHTYPE" speedFactor="1.04" vaporized=""/>
    <tripinfo id="93" depart="197.00" departLane="978867529_0" departPos="5.10" departSpeed="0.00" departDelay="0.06" arrival="281.00" arrivalLane="210831345#1_0" arrivalPos="264.29" arrivalSpeed="13.75" duration="84.00" routeLength="951.92" waitingTime="6.00" waitingCount="1" stopTime="0.00" timeLoss="22.31" rerouteNo="0" devices="tripinfo_93" vType="DEFAULT_VEHTYPE" speedFactor="1.06" vaporized=""/>
    <tripinfo id="72" depart="153.00" departLane="-661251539_0" departPos="5.10" departSpeed="0.00" departDelay="0.53" arrival="282.00" arrivalLane="153964138#0_0" arrivalPos="337.99" arrivalSpeed="15.00" duration="129.00" routeLength="1239.04" waitingTime="18.00" waitingCount="1" stopTime="0.00" timeLoss="38.59" rerouteNo="0" devices="tripinfo_72" vType="DEFAULT_VEHTYPE" speedFactor="0.95" vaporized=""/>
    <tripinfo id="52" depart="111.00" departLane="-231177697#2_0" departPos="5.10" departSpeed="0.00" departDelay="0.88" arrival="284.00" arrivalLane="226276377#0_0" arrivalPos="135.52" arrivalSpeed="10.78" duration="173.00" routeLength="1114.55" waitingTime="57.00" waitingCount="2" stopTime="0.00" timeLoss="84.19" rerouteNo="0" devices="tripinfo_52" vType="DEFAULT_VEHTYPE" speedFactor="0.85" vaporized=""/>
    <tripinfo id="51" depart="108.00" departLane="666135205#0_0" departPos="5.10" departSpeed="0.00" departDelay="0.00" arrival="291.00" arrivalLane="218680176#0_1" arrivalPos="98.94" arrivalSpeed="11.51" duration="183.00" routeLength="693.09" waitingTime="109.00" waitingCount="2" stopTime="0.00" timeLoss="125.36" rerouteNo="0" devices="tripinfo_51" vType="DEFAULT_VEHTYPE" speedFactor="0.89" vaporized=""/>
    <tripinfo id="60" depart="128.00" departLane="666135205#0_0" departPos="5.10" departSpeed="0.00" departDelay="0.94" arrival="293.00" arrivalLane="218680176#0_1" arrivalPos="98.94" arrivalSpeed="13.95" duration="165.00" routeLength="693.09" waitingTime="97.00" waitingCount="1" stopTime="0.00" timeLoss="116.51" rerouteNo="0" devices="tripinfo_60" vType="DEFAULT_VEHTYPE" speedFactor="1.06" vaporized=""/>
    <tripinfo id="81" depart="172.00" departLane="-231177697#2_0" departPos="5.10" departSpeed="0.00" departDelay="0.47" arrival="293.00" arrivalLane="450554042#0_0" arrivalPos="622.66" arrivalSpeed="16.70" duration="121.00" routeLength="1613.58" waitingTime="2.00" waitingCount="1" stopTime="0.00" timeLoss="22.98" rerouteNo="0" devices="tripinfo_81" vType="DEFAULT_VEHTYPE" speedFactor="1.05" vaporized=""/>
    <tripinfo id="46" depart="98.00" departLane="978867529_0" departPos="5.10" departSpeed="0.00" departDelay="0.59" arrival="295.00" arrivalLane="210831347#0_0" arrivalPos="149.88" arrivalSpeed="11.47" duration="197.00" routeLength="812.56" waitingTime="114.00" waitingCount="2" stopTime="0.00" timeLoss="129.76" rerouteNo="0" devices="tripinfo_46" vType="DEFAULT_VEHTYPE" speedFactor="0.84" vaporized=""/>