<?xml version="1.0" encoding="UTF-8"?>

<!-- generated on 2024-09-02 17:47:37 by Eclipse SUMO sumo Version 1.20.0
<configuration xmlns:xsi="http://www.w3.org/2001/XMLSchema-instance" xsi:noNamespaceSchemaLocation="http://sumo.dlr.de/xsd/sumoConfiguration.xsd">

    <input>
        <net-file value="c:\self\School\Master\Disertation\code\RESCO\resco_benchmark\environments/unirii/osm.net.xml.gz"/>
        <route-files value="c:\self\School\Master\Disertation\code\RESCO\resco_benchmark\environments/unirii/osm.passenger.trips.xml"/>
        <additional-files value="c:\self\School\Master\Disertation\code\RESCO\resco_benchmark\environments/unirii/osm.poly.xml.gz"/>
    </input>

    <output>
        <tripinfo-output value="C:\self\School\Master\Disertation\code\RESCO\results\IDQN-tr0-unirii-0-drq_norm-wait_norm\tripinfo_15.xml"/>
        <tripinfo-output.write-unfinished value="true"/>
    </output>

    <processing>
        <ignore-route-errors value="true"/>
        <time-to-teleport value="-1"/>
    </processing>

    <routing>
        <device.rerouting.adaptation-steps value="18"/>
        <device.rerouting.adaptation-interval value="10"/>
    </routing>

    <report>
        <verbose value="true"/>
        <no-warnings value="True"/>
        <duration-log.statistics value="true"/>
        <no-step-log value="True"/>
    </report>

    <traci_server>
        <remote-port value="51560"/>
    </traci_server>

    <random_number>
        <random value="true"/>
    </random_number>

    <gui_only>
        <gui-settings-file value="c:\self\School\Master\Disertation\code\RESCO\resco_benchmark\environments/unirii/osm.view.xml"/>
    </gui_only>

</configuration>
-->

<tripinfos xmlns:xsi="http://www.w3.org/2001/XMLSchema-instance" xsi:noNamespaceSchemaLocation="http://sumo.dlr.de/xsd/tripinfo_file.xsd">
    <tripinfo id="10" depart="23.00" departLane="978867529_0" departPos="5.10" departSpeed="0.00" departDelay="1.82" arrival="54.00" arrivalLane="231177697#0_1" arrivalPos="74.44" arrivalSpeed="14.96" duration="31.00" routeLength="437.06" waitingTime="0.00" waitingCount="0" stopTime="0.00" timeLoss="5.80" rerouteNo="0" devices="tripinfo_10" vType="DEFAULT_VEHTYPE" speedFactor="1.14" vaporized=""/>
    <tripinfo id="3" depart="7.00" departLane="E8_0" departPos="5.10" departSpeed="0.00" departDelay="0.65" arrival="82.00" arrivalLane="-256961141#1_0" arrivalPos="204.72" arrivalSpeed="12.08" duration="75.00" routeLength="832.89" waitingTime="0.00" waitingCount="0" stopTime="0.00" timeLoss="8.47" rerouteNo="0" devices="tripinfo_3" vType="DEFAULT_VEHTYPE" speedFactor="0.93" vaporized=""/>
    <tripinfo id="15" depart="33.00" departLane="978867529_0" departPos="5.10" departSpeed="0.00" departDelay="1.24" arrival="89.00" arrivalLane="231177697#0_1" arrivalPos="74.44" arrivalSpeed="11.36" duration="56.00" routeLength="437.06" waitingTime="13.00" waitingCount="1" stopTime="0.00" timeLoss="22.79" rerouteNo="0" devices="tripinfo_15" vType="DEFAULT_VEHTYPE" speedFactor="0.86" vaporized=""/>
    <tripinfo id="32" depart="68.00" departLane="978867529_0" departPos="5.10" departSpeed="0.00" departDelay="0.24" arrival="103.00" arrivalLane="231177697#0_1" arrivalPos="74.44" arrivalSpeed="13.07" duration="35.00" routeLength="437.06" waitingTime="0.00" waitingCount="0" stopTime="0.00" timeLoss="4.87" rerouteNo="0" devices="tripinfo_32" vType="DEFAULT_VEHTYPE" speedFactor="0.97" vaporized=""/>
    <tripinfo id="4" depart="9.00" departLane="-661251539_0" departPos="5.10" departSpeed="0.00" departDelay="0.53" arrival="124.00" arrivalLane="-256961141#1_1" arrivalPos="204.72" arrivalSpeed="12.98" duration="115.00" routeLength="872.91" waitingTime="36.00" waitingCount="1" stopTime="0.00" timeLoss="49.95" rerouteNo="0" devices="tripinfo_4" vType="DEFAULT_VEHTYPE" speedFactor="0.94" vaporized=""/>
    <tripinfo id="50" depart="106.00" departLane="-218680176#1_0" departPos="5.10" departSpeed="0.00" departDelay="0.12" arrival="124.00" arrivalLane="231177697#0_0" arrivalPos="74.44" arrivalSpeed="14.53" duration="18.00" routeLength="205.97" waitingTime="0.00" waitingCount="0" stopTime="0.00" timeLoss="4.23" rerouteNo="0" devices="tripinfo_50" vType="DEFAULT_VEHTYPE" speedFactor="1.11" vaporized=""/>
    <tripinfo id="0" depart="0.00" departLane="65746828#0_0" departPos="5.10" departSpeed="0.00" departDelay="0.00" arrival="126.00" arrivalLane="-256961141#1_1" arrivalPos="204.72" arrivalSpeed="13.48" duration="126.00" routeLength="931.50" waitingTime="45.00" waitingCount="2" stopTime="0.00" timeLoss="64.89" rerouteNo="0" devices="tripinfo_0" vType="DEFAULT_VEHTYPE" speedFactor="1.03" vaporized=""/>
    <tripinfo id="30" depart="64.00" departLane="E8_0" departPos="5.10" departSpeed="0.00" departDelay="0.47" arrival="130.00" arrivalLane="226276377#0_1" arrivalPos="135.52" arrivalSpeed="12.68" duration="66.00" routeLength="784.51" waitingTime="0.00" waitingCount="0" stopTime="0.00" timeLoss="6.05" rerouteNo="0" devices="tripinfo_30" vType="DEFAULT_VEHTYPE" speedFactor="0.95" vaporized=""/>
    <tripinfo id="20" depart="43.00" departLane="666135205#0_0" departPos="5.10" departSpeed="0.00" departDelay="0.65" arrival="131.00" arrivalLane="-256961141#1_1" arrivalPos="204.72" arrivalSpeed="14.48" duration="88.00" routeLength="1068.72" waitingTime="10.00" waitingCount="1" stopTime="0.00" timeLoss="24.04" rerouteNo="0" devices="tripinfo_20" vType="DEFAULT_VEHTYPE" speedFactor="1.13" vaporized=""/>
    <tripinfo id="2" depart="5.00" departLane="666135205#0_0" departPos="5.10" departSpeed="0.00" departDelay="0.76" arrival="136.00" arrivalLane="231177697#0_0" arrivalPos="74.44" arrivalSpeed="15.99" duration="131.00" routeLength="649.17" waitingTime="70.00" waitingCount="2" stopTime="0.00" timeLoss="89.70" rerouteNo="0" devices="tripinfo_2" vType="DEFAULT_VEHTYPE" speedFactor="1.16" vaporized=""/>
    <tripinfo id="31" depart="66.00" departLane="65746828#0_0" departPos="5.10" departSpeed="0.00" departDelay="0.35" arrival="139.00" arrivalLane="231177697#0_0" arrivalPos="74.44" arrivalSpeed="13.86" duration="73.00" routeLength="558.79" waitingTime="19.00" waitingCount="1" stopTime="0.00" timeLoss="32.19" rerouteNo="0" devices="tripinfo_31" vType="DEFAULT_VEHTYPE" speedFactor="1.03" vaporized=""/>
    <tripinfo id="11" depart="24.00" departLane="-661251539_0" departPos="5.10" departSpeed="0.00" departDelay="0.71" arrival="160.00" arrivalLane="153964138#0_0" arrivalPos="337.99" arrivalSpeed="14.21" duration="136.00" routeLength="1239.04" waitingTime="25.00" waitingCount="1" stopTime="0.00" timeLoss="38.86" rerouteNo="0" devices="tripinfo_11" vType="DEFAULT_VEHTYPE" speedFactor="0.89" vaporized=""/>
    <tripinfo id="25" depart="53.00" departLane="-661251539_0" departPos="5.10" departSpeed="0.00" departDelay="0.06" arrival="162.00" arrivalLane="153964138#0_0" arrivalPos="337.99" arrivalSpeed="14.22" duration="109.00" routeLength="1239.04" waitingTime="0.00" waitingCount="0" stopTime="0.00" timeLoss="11.54" rerouteNo="0" devices="tripinfo_25" vType="DEFAULT_VEHTYPE" speedFactor="0.88" vaporized=""/>
    <tripinfo id="35" depart="75.00" departLane="-226276377#1_0" departPos="5.10" departSpeed="0.00" departDelay="0.88" arrival="165.00" arrivalLane="450554042#0_0" arrivalPos="622.66" arrivalSpeed="17.38" duration="90.00" routeLength="763.53" waitingTime="33.00" waitingCount="1" stopTime="0.00" timeLoss="43.45" rerouteNo="0" devices="tripinfo_35" vType="DEFAULT_VEHTYPE" speedFactor="1.05" vaporized=""/>
    <tripinfo id="12" depart="26.00" departLane="E8_0" departPos="5.10" departSpeed="0.00" departDelay="0.59" arrival="168.00" arrivalLane="210831347#0_1" arrivalPos="149.88" arrivalSpeed="14.15" duration="142.00" routeLength="1367.17" waitingTime="41.00" waitingCount="1" stopTime="0.00" timeLoss="55.19" rerouteNo="0" devices="tripinfo_12" vType="DEFAULT_VEHTYPE" speedFactor="1.09" vaporized=""/>
    <tripinfo id="6" depart="13.00" departLane="-218680176#1_0" departPos="5.10" departSpeed="0.00" departDelay="0.29" arrival="180.00" arrivalLane="153964138#0_2" arrivalPos="337.99" arrivalSpeed="14.79" duration="167.00" routeLength="462.27" waitingTime="127.00" waitingCount="1" stopTime="0.00" timeLoss="135.33" rerouteNo="0" devices="tripinfo_6" vType="DEFAULT_VEHTYPE" speedFactor="0.93" vaporized=""/>
    <tripinfo id="22" depart="47.00" departLane="-218680176#1_0" departPos="5.10" departSpeed="0.00" departDelay="0.41" arrival="182.00" arrivalLane="210831345#1_0" arrivalPos="264.29" arrivalSpeed="11.59" duration="135.00" routeLength="699.94" waitingTime="63.00" waitingCount="1" stopTime="0.00" timeLoss="74.24" rerouteNo="0" devices="tripinfo_22" vType="DEFAULT_VEHTYPE" speedFactor="0.85" vaporized=""/>
    <tripinfo id="23" depart="50.00" departLane="-218680176#1_0" departPos="5.10" departSpeed="0.00" departDelay="1.29" arrival="183.00" arrivalLane="210831345#1_1" arrivalPos="264.29" arrivalSpeed="13.17" duration="133.00" routeLength="699.94" waitingTime="62.00" waitingCount="1" stopTime="0.00" timeLoss="78.08" rerouteNo="0" devices="tripinfo_23" vType="DEFAULT_VEHTYPE" speedFactor="0.95" vaporized=""/>
    <tripinfo id="36" depart="77.00" departLane="978867529_0" departPos="5.10" departSpeed="0.00" departDelay="0.76" arrival="184.00" arrivalLane="210831345#1_0" arrivalPos="264.29" arrivalSpeed="15.13" duration="107.00" routeLength="951.92" waitingTime="27.00" waitingCount="1" stopTime="0.00" timeLoss="48.48" rerouteNo="0" devices="tripinfo_36" vType="DEFAULT_VEHTYPE" speedFactor="1.13" vaporized=""/>
    <tripinfo id="61" depart="130.00" departLane="978867529_0" departPos="5.10" departSpeed="0.00" departDelay="0.82" arrival="188.00" arrivalLane="218680176#0_0" arrivalPos="98.94" arrivalSpeed="13.20" duration="58.00" routeLength="442.15" waitingTime="20.00" waitingCount="1" stopTime="0.00" timeLoss="30.41" rerouteNo="0" devices="tripinfo_61" vType="DEFAULT_VEHTYPE" speedFactor="1.04" vaporized=""/>
    <tripinfo id="47" depart="100.00" departLane="-218680176#1_0" departPos="5.10" departSpeed="0.00" departDelay="0.47" arrival="192.00" arrivalLane="210831347#0_0" arrivalPos="149.88" arrivalSpeed="14.83" duration="92.00" routeLength="560.58" waitingTime="41.00" waitingCount="1" stopTime="0.00" timeLoss="54.64" rerouteNo="0" devices="tripinfo_47" vType="DEFAULT_VEHTYPE" speedFactor="1.15" vaporized=""/>
    <tripinfo id="46" depart="98.00" departLane="978867529_0" departPos="5.10" departSpeed="0.00" departDelay="0.59" arrival="195.00" arrivalLane="210831347#0_0" arrivalPos="149.88" arrivalSpeed="13.63" duration="97.00" routeLength="812.56" waitingTime="24.00" waitingCount="2" stopTime="0.00" timeLoss="40.38" rerouteNo="0" devices="tripinfo_46" vType="DEFAULT_VEHTYPE" speedFactor="0.99" vaporized=""/>
    <tripinfo id="16" depart="34.00" departLane="256961141#0_0" departPos="5.10" departSpeed="0.00" departDelay="0.12" arrival="198.00" arrivalLane="450554042#0_0" arrivalPos="622.66" arrivalSpeed="15.91" duration="164.00" routeLength="853.74" waitingTime="97.00" waitingCount="1" stopTime="0.00" timeLoss="108.09" rerouteNo="0" devices="tripinfo_16" vType="DEFAULT_VEHTYPE" speedFactor="0.98" vaporized=""/>
    <tripinfo id="40" depart="85.00" departLane="65746828#0_0" departPos="5.10" departSpeed="0.00" departDelay="0.29" arrival="199.00" arrivalLane="210831345#1_0" arrivalPos="264.29" arrivalSpeed="12.51" duration="114.00" routeLength="446.75" waitingTime="72.00" waitingCount="1" stopTime="0.00" timeLoss="80.25" rerouteNo="0" devices="tripinfo_40" vType="DEFAULT_VEHTYPE" speedFactor="0.97" vaporized=""/>
    <tripinfo id="54" depart="115.00" departLane="256961141#0_0" departPos="5.10" departSpeed="0.00" departDelay="0.65" arrival="200.00" arrivalLane="450554042#0_0" arrivalPos="622.66" arrivalSpeed="15.46" duration="85.00" routeLength="853.74" waitingTime="18.00" waitingCount="1" stopTime="0.00" timeLoss="29.32" rerouteNo="0" devices="tripinfo_54" vType="DEFAULT_VEHTYPE" speedFactor="0.98" vaporized=""/>
    <tripinfo id="13" depart="28.00" departLane="-218680176#1_0" departPos="5.10" departSpeed="0.00" departDelay="0.47" arrival="201.00" arrivalLane="-256961141#1_1" arrivalPos="204.72" arrivalSpeed="11.66" duration="173.00" routeLength="1207.38" waitingTime="57.00" waitingCount="3" stopTime="0.00" timeLoss="79.90" rerouteNo="0" devices="tripinfo_13" vType="DEFAULT_VEHTYPE" speedFactor="0.88" vaporized=""/>
    <tripinfo id="59" depart="125.00" departLane="65746828#0_0" departPos="5.10" departSpeed="0.00" departDelay="0.06" arrival="203.00" arrivalLane="153964138#0_0" arrivalPos="337.99" arrivalSpeed="16.02" duration="78.00" routeLength="834.49" waitingTime="10.00" waitingCount="1" stopTime="0.00" timeLoss="22.68" rerouteNo="0" devices="tripinfo_59" vType="DEFAULT_VEHTYPE" speedFactor="1.02" vaporized=""/>
    <tripinfo id="7" depart="15.00" departLane="65746828#0_0" departPos="5.10" departSpeed="0.00" departDelay="0.18" arrival="217.00" arrivalLane="218680176#0_1" arrivalPos="98.94" arrivalSpeed="11.64" duration="202.00" routeLength="602.71" waitingTime="136.00" waitingCount="2" stopTime="0.00" timeLoss="150.31" rerouteNo="0" devices="tripinfo_7" vType="DEFAULT_VEHTYPE" speedFactor="0.86" vaporized=""/>
    <tripinfo id="17" depart="36.00" departLane="-661251539_0" departPos="5.10" departSpeed="0.00" departDelay="0.00" arrival="219.00" arrivalLane="218680176#0_1" arrivalPos="98.94" arrivalSpeed="12.97" duration="183.00" routeLength="1001.21" waitingTime="82.00" waitingCount="2" stopTime="0.00" timeLoss="107.97" rerouteNo="0" devices="tripinfo_17" vType="DEFAULT_VEHTYPE" speedFactor="0.98" vaporized=""/>
    <tripinfo id="51" depart="108.00" departLane="666135205#0_0" departPos="5.10" departSpeed="0.00" departDelay="0.00" arrival="220.00" arrivalLane="218680176#0_1" arrivalPos="98.94" arrivalSpeed="13.08" duration="112.00" routeLength="693.09" waitingTime="41.00" waitingCount="2" stopTime="0.00" timeLoss="60.11" rerouteNo="0" devices="tripinfo_51" vType="DEFAULT_VEHTYPE" speedFactor="0.99" vaporized=""/>
    <tripinfo id="75" depart="159.00" departLane="E8_0" departPos="5.10" departSpeed="0.00" departDelay="0.18" arrival="233.00" arrivalLane="226276377#0_1" arrivalPos="135.52" arrivalSpeed="11.00" duration="74.00" routeLength="784.51" waitingTime="0.00" waitingCount="0" stopTime="0.00" timeLoss="6.73" rerouteNo="0" devices="tripinfo_75" vType="DEFAULT_VEHTYPE" speedFactor="0.85" vaporized=""/>
    <tripinfo id="68" depart="144.00" departLane="-218680176#1_0" departPos="5.10" departSpeed="0.00" departDelay="0.00" arrival="237.00" arrivalLane="231177697#0_0" arrivalPos="74.44" arrivalSpeed="15.06" duration="93.00" routeLength="205.97" waitingTime="68.00" waitingCount="1" stopTime="0.00" timeLoss="79.86" rerouteNo="0" devices="tripinfo_68" vType="DEFAULT_VEHTYPE" speedFactor="1.15" vaporized=""/>
    <tripinfo id="44" depart="94.00" departLane="-218680176#1_0" departPos="5.10" departSpeed="0.00" departDelay="0.82" arrival="238.00" arrivalLane="-256961141#1_1" arrivalPos="204.72" arrivalSpeed="13.16" duration="144.00" routeLength="1207.38" waitingTime="43.00" waitingCount="1" stopTime="0.00" timeLoss="58.58" rerouteNo="0" devices="tripinfo_44" vType="DEFAULT_VEHTYPE" speedFactor="0.96" vaporized=""/>
    <tripinfo id="79" depart="168.00" departLane="-231177697#2_0" departPos="5.10" departSpeed="0.00" departDelay="0.71" arrival="247.00" arrivalLane="153964138#0_0" arrivalPos="337.99" arrivalSpeed="17.83" duration="79.00" routeLength="417.38" waitingTime="43.00" waitingCount="1" stopTime="0.00" timeLoss="54.00" rerouteNo="0" devices="tripinfo_79" vType="DEFAULT_VEHTYPE" speedFactor="1.09" vaporized=""/>
    <tripinfo id="71" depart="151.00" departLane="-231177697#2_0" departPos="5.10" departSpeed="0.00" departDelay="0.65" arrival="252.00" arrivalLane="39907424_0" arrivalPos="316.44" arrivalSpeed="10.55" duration="101.00" routeLength="961.15" waitingTime="0.00" waitingCount="0" stopTime="0.00" timeLoss="11.94" rerouteNo="0" devices="tripinfo_71" vType="DEFAULT_VEHTYPE" speedFactor="0.76" vaporized=""/>
    <tripinfo id="86" depart="183.00" departLane="256961141#0_0" departPos="5.10" departSpeed="0.00" departDelay="0.88" arrival="274.00" arrivalLane="39907424_0" arrivalPos="316.44" arrivalSpeed="14.36" duration="91.00" routeLength="873.95" waitingTime="18.00" waitingCount="1" stopTime="0.00" timeLoss="34.06" rerouteNo="0" devices="tripinfo_86" vType="DEFAULT_VEHTYPE" speedFactor="1.08" vaporized=""/>
    <tripinfo id="117" depart="248.00" departLane="-231177697#2_0" departPos="5.10" departSpeed="0.00" departDelay="0.24" arrival="284.00" arrivalLane="153964138#0_0" arrivalPos="337.99" arrivalSpeed="14.68" duration="36.00" routeLength="417.38" waitingTime="0.00" waitingCount="0" stopTime="0.00" timeLoss="6.23" rerouteNo="0" devices="tripinfo_117" vType="DEFAULT_VEHTYPE" speedFactor="0.91" vaporized=""/>
    <tripinfo id="60" depart="128.00" departLane="666135205#0_0" departPos="5.10" departSpeed="0.00" departDelay="0.94" arrival="290.00" arrivalLane="218680176#0_1" arrivalPos="98.94" arrivalSpeed="13.46" duration="162.00" routeLength="693.09" waitingTime="93.00" waitingCount="3" stopTime="0.00" timeLoss="110.36" rerouteNo="0" devices="tripinfo_60" vType="DEFAULT_VEHTYPE" speedFactor="1.00" vaporized=""/>
    <tripinfo id="27" depart="58.00" departLane="65746828#0_0" departPos="5.10" departSpeed="0.00" departDelay="0.82" arrival="292.00" arrivalLane="226276377#0_0" arrivalPos="135.52" arrivalSpeed="12.10" duration="234.00" routeLength="841.69" waitingTime="161.00" waitingCount="1" stopTime="0.00" timeLoss="174.55" rerouteNo="0" devices="tripinfo_27" vType="DEFAULT_VEHTYPE" speedFactor="0.94" vaporized=""/>
    <tripinfo id="29" depart="63.00" departLane="-226276377#1_0" departPos="5.10" departSpeed="0.00" departDelay="1.59" arrival="294.00" arrivalLane="210831347#0_1" arrivalPos="149.88" arrivalSpeed="14.40" duration="231.00" routeLength="888.52" waitingTime="150.00" waitingCount="2" stopTime="0.00" timeLoss="172.25" rerouteNo="0" devices="tripinfo_29" vType="DEFAULT_VEHTYPE" speedFactor="1.04" vaporized=""/>
    <tripinfo id="45" depart="97.00" departLane="-218680176#1_0" departPos="5.10" departSpeed="0.00" departDelay="1.71" arrival="294.00" arrivalLane="226276377#0_0" arrivalPos="135.52" arrivalSpeed="13.71" duration="197.00" routeLength="1117.57" waitingTime="100.00" waitingCount="2" stopTime="0.00" timeLoss="122.66" rerouteNo="0" devices="tripinfo_45" vType="DEFAULT_VEHTYPE" speedFactor="1.02" vaporized=""/>
    <tripinfo id="19" depart="42.00" departLane="978867529_0" departPos="5.10" departSpeed="0.00" departDelay="1.76" arrival="296.00" arrivalLane="226276377#0_0" arrivalPos="135.52" arrivalSpeed="15.38" duration="254.00" routeLength="1369.55" waitingTime="139.00" waitingCount="3" stopTime="0.00" timeLoss="173.99" rerouteNo="0" devices="tripinfo_19" vType="DEFAULT_VEHTYPE" speedFactor="1.13" vaporized=""/>
    <tripinfo id="53" depart="113.00" departLane="-226276377#1_0" departPos="5.10" departSpeed="0.00" departDelay="0.76" arrival="296.00" arrivalLane="210831347#0_1" arrivalPos="149.88" arrivalSpeed="14.34" duration="183.00" routeLength="888.52" waitingTime="101.00" waitingCount="2" stopTime="0.00" timeLoss="126.23" rerouteNo="0" devices="tripinfo_53" vType="DEFAULT_VEHTYPE" speedFactor="1.08" vaporized=""/>
    <tripinfo id="92" depart="195.00" departLane="-661251539_0" departPos="5.10" departSpeed="0.00" departDelay="0.18" arrival="298.00" arrivalLane="210831347#0_1" arrivalPos="149.88" arrivalSpeed="14.33" duration="103.00" routeLength="731.18" waitingTime="30.00" waitingCount="1" stopTime="0.00" timeLoss="51.55" rerouteNo="0" devices="tripinfo_92" vType="DEFAULT_VEHTYPE" speedFactor="1.05" vaporized=""/>
    <tripinfo id="14" depart="30.00" departLane="978867529_0" departPos="5.10" departSpeed="0.00" departDelay="0.35" arrival="299.00" arrivalLane="226276377#0_0" arrivalPos="135.52" arrivalSpeed="13.53" duration="269.00" routeLength="1369.55" waitingTime="145.00" waitingCount="3" stopTime="0.00" timeLoss="182.74" rerouteNo="0" devices="tripinfo_14" vType="DEFAULT_VEHTYPE" speedFactor="1.05" vaporized=""/>
    <tripinfo id="106" depart="225.00" departLane="256961141#0_0" departPos="5.10" departSpeed="0.00" departDelay="0.53" arrival="300.00" arrivalLane="210831347#0_1" arrivalPos="149.88" arrivalSpeed="14.07" duration="75.00" routeLength="937.44" waitingTime="0.00" waitingCount="0" stopTime="0.00" timeLoss="13.11" rerouteNo="0" devices="tripinfo_106" vType="DEFAULT_VEHTYPE" speedFactor="1.06" vaporized=""/>
    <tripinfo id="18" depart="39.00" departLane="978867529_0" departPos="5.10" departSpeed="0.00" departDelay="0.88" arrival="301.00" arrivalLane="226276377#0_0" arrivalPos="135.52" arrivalSpeed="12.39" duration="262.00" routeLength="1369.55" waitingTime="140.00" waitingCount="3" stopTime="0.00" timeLoss="170.77" rerouteNo="0" devices="tripinfo_18" vType="DEFAULT_VEHTYPE" speedFactor="0.98" vaporized=""/>
    <tripinfo id="91" depart="193.00" departLane="E8_0" departPos="5.10" departSpeed="0.00" departDelay="0.29" arrival="301.00" arrivalLane="-256961141#1_0" arrivalPos="204.72" arrivalSpeed="11.48" duration="108.00" routeLength="832.89" waitingTime="29.00" waitingCount="1" stopTime="0.00" timeLoss="40.75" rerouteNo="0" devices="tripinfo_91" vType="DEFAULT_VEHTYPE" speedFactor="0.91" vaporized=""/>
    <tripinfo id="58" depart="123.00" departLane="-231177697#2_0" departPos="5.10" departSpeed="0.00" departDelay="0.18" arrival="303.00" arrivalLane="226276377#0_0" arrivalPos="135.52" arrivalSpeed="14.42" duration="180.00" routeLength="1114.55" waitingTime="85.00" waitingCount="2" stopTime="0.00" timeLoss="109.33" rerouteNo="0" devices="tripinfo_58" vType="DEFAULT_VEHTYPE" speedFactor="1.07" vaporized=""/>
    <tripinfo id="52" depart="111.00" departLane="-231177697#2_0" departPos="5.10" departSpeed="0.00" departDelay="0.88" arrival="307.00" arrivalLane="226276377#0_0" arrivalPos="135.52" arrivalSpeed="12.80" duration="196.00" routeLength="1114.55" waitingTime="92.00" waitingCount="2" stopTime="0.00" timeLoss="119.35" rerouteNo="0" devices="tripinfo_52" vType="DEFAULT_VEHTYPE" speedFactor="0.99" vaporized=""/>
    <tripinfo id="1" depart="3.00" departLane="-231177697#2_0" departPos="5.10" departSpeed="0.00" departDelay="0.88" arrival="308.00" arrivalLane="210831345#1_1" arrivalPos="264.29" arrivalSpeed="13.72" duration="305.00" routeLength="696.92" waitingTime="230.00" waitingCount="2" stopTime="0.00" timeLoss="252.94" rerouteNo="0" devices="tripinfo_1" vType="DEFAULT_VEHTYPE" speedFactor="0.99" vaporized=""/>
    <tripinfo id="78" depart="166.00" departLane="-661251539_0" departPos="5.10" departSpeed="0.00" departDelay="0.82" arrival="309.00" arrivalLane="226276377#0_0" arrivalPos="135.52" arrivalSpeed="13.10" duration="143.00" routeLength="783.10" waitingTime="66.00" waitingCount="2" stopTime="0.00" timeLoss="89.74" rerouteNo="0" devices="tripinfo_78" vType="DEFAULT_VEHTYPE" speedFactor="1.03" vaporized=""/>
    <tripinfo id="21" depart="45.00" departLane="-231177697#2_0" departPos="5.10" departSpeed="0.00" departDelay="0.53" arrival="311.00" arrivalLane="210831345#1_1" arrivalPos="264.29" arrivalSpeed="11.31" duration="266.00" routeLength="696.92" waitingTime="190.00" waitingCount="2" stopTime="0.00" timeLoss="208.40" rerouteNo="0" devices="tripinfo_21" vType="DEFAULT_VEHTYPE" speedFactor="0.88" vaporized=""/>
    <tripinfo id="55" depart="117.00" departLane="978867529_0" departPos="5.10" departSpeed="0.00" departDelay="0.53" arrival="311.00" arrivalLane="210831345#1_0" arrivalPos="264.29" arrivalSpeed="9.77" duration="194.00" routeLength="951.92" waitingTime="93.00" waitingCount="1" stopTime="0.00" timeLoss="105.49" rerouteNo="0" devices="tripinfo_55" vType="DEFAULT_VEHTYPE" speedFactor="0.74" vaporized=""/>
    <tripinfo id="120" depart="255.00" departLane="-661251539_0" departPos="5.10" departSpeed="0.00" departDelay="0.88" arrival="311.00" arrivalLane="226276377#0_0" arrivalPos="135.52" arrivalSpeed="15.51" duration="56.00" routeLength="783.10" waitingTime="0.00" waitingCount="0" stopTime="0.00" timeLoss="9.03" rerouteNo="0" devices="tripinfo_120" vType="DEFAULT_VEHTYPE" speedFactor="1.15" vaporized=""/>
    <tripinfo id="34" depart="72.00" departLane="-231177697#2_0" departPos="5.10" departSpeed="0.00" departDelay="0.00" arrival="312.00" arrivalLane="210831345#1_0" arrivalPos="264.29" arrivalSpeed="12.70" duration="240.00" routeLength="696.92" waitingTime="165.00" waitingCount="2" stopTime="0.00" timeLoss="190.21" rerouteNo="0" devices="tripinfo_34" vType="DEFAULT_VEHTYPE" speedFactor="1.02" vaporized=""/>
    <tripinfo id="39" depart="83.00" departLane="-231177697#2_0" departPos="5.10" departSpeed="0.00" departDelay="0.41" arrival="313.00" arrivalLane="210831345#1_1" arrivalPos="264.29" arrivalSpeed="14.53" duration="230.00" routeLength="696.92" waitingTime="156.00" waitingCount="2" stopTime="0.00" timeLoss="182.10" rerouteNo="0" devices="tripinfo_39" vType="DEFAULT_VEHTYPE" speedFactor="1.07" vaporized=""/>
    <tripinfo id="62" depart="132.00" departLane="-218680176#1_0" departPos="5.10" departSpeed="0.00" departDelay="0.71" arrival="315.00" arrivalLane="210831345#1_1" arrivalPos="264.29" arrivalSpeed="14.44" duration="183.00" routeLength="699.94" waitingTime="114.00" waitingCount="2" stopTime="0.00" timeLoss="135.05" rerouteNo="0" devices="tripinfo_62" vType="DEFAULT_VEHTYPE" speedFactor="1.08" vaporized=""/>
    <tripinfo id="85" depart="180.00" departLane="E8_0" departPos="5.10" departSpeed="0.00" departDelay="0.00" arrival="317.00" arrivalLane="226276377#0_1" arrivalPos="135.52" arrivalSpeed="15.10" duration="137.00" routeLength="784.51" waitingTime="74.00" waitingCount="1" stopTime="0.00" timeLoss="86.16" rerouteNo="0" devices="tripinfo_85" vType="DEFAULT_VEHTYPE" speedFactor="1.13" vaporized=""/>
    <tripinfo id="26" depart="56.00" departLane="-231177697#2_0" departPos="5.10" departSpeed="0.00" departDelay="0.94" arrival="320.00" arrivalLane="450554042#0_0" arrivalPos="622.66" arrivalSpeed="16.22" duration="264.00" routeLength="1613.58" waitingTime="140.00" waitingCount="2" stopTime="0.00" timeLoss="165.44" rerouteNo="0" devices="tripinfo_26" vType="DEFAULT_VEHTYPE" speedFactor="1.04" vaporized=""/>
    <tripinfo id="110" depart="233.00" departLane="E8_0" departPos="5.10" departSpeed="0.00" departDelay="0.06" arrival="320.00" arrivalLane="226276377#0_1" arrivalPos="135.52" arrivalSpeed="13.07" duration="87.00" routeLength="784.51" waitingTime="18.00" waitingCount="1" stopTime="0.00" timeLoss="29.53" rerouteNo="0" devices="tripinfo_110" vType="DEFAULT_VEHTYPE" speedFactor="0.99" vaporized=""/>
    <tripinfo id="104" depart="222.00" departLane="-661251539_0" departPos="5.10" departSpeed="0.00" departDelay="1.76" arrival="326.00" arrivalLane="450554042#0_0" arrivalPos="622.66" arrivalSpeed="15.55" duration="104.00" routeLength="1282.13" waitingTime="2.00" waitingCount="1" stopTime="0.00" timeLoss="18.15" rerouteNo="0" devices="tripinfo_104" vType="DEFAULT_VEHTYPE" speedFactor="0.96" vaporized=""/>
    <tripinfo id="9" depart="20.00" departLane="978867529_0" departPos="5.10" departSpeed="0.00" departDelay="0.94" arrival="327.00" arrivalLane="-256961141#1_1" arrivalPos="204.72" arrivalSpeed="11.00" duration="307.00" routeLength="1459.36" waitingTime="167.00" waitingCount="3" stopTime="0.00" timeLoss="193.25" rerouteNo="0" devices="tripinfo_9" vType="DEFAULT_VEHTYPE" speedFactor="0.84" vaporized=""/>
    <tripinfo id="41" depart="88.00" departLane="65746828#0_0" departPos="5.10" departSpeed="0.00" departDelay="1.18" arrival="328.00" arrivalLane="450554042#0_0" arrivalPos="622.66" arrivalSpeed="14.04" duration="240.00" routeLength="1340.72" waitingTime="120.00" waitingCount="3" stopTime="0.00" timeLoss="141.42" rerouteNo="0" devices="tripinfo_41" vType="DEFAULT_VEHTYPE" speedFactor="0.85" vaporized=""/>
    <tripinfo id="57" depart="121.00" departLane="E8_0" departPos="5.10" departSpeed="0.00" departDelay="0.29" arrival="328.00" arrivalLane="39907424_0" arrivalPos="316.44" arrivalSpeed="14.85" duration="207.00" routeLength="1303.68" waitingTime="110.00" waitingCount="1" stopTime="0.00" timeLoss="126.13" rerouteNo="0" devices="tripinfo_57" vType="DEFAULT_VEHTYPE" speedFactor="1.13" vaporized=""/>
    <tripinfo id="115" depart="244.00" departLane="-218680176#1_0" departPos="5.10" departSpeed="0.00" departDelay="0.47" arrival="328.00" arrivalLane="153964138#0_2" arrivalPos="337.99" arrivalSpeed="17.11" duration="84.00" routeLength="462.27" waitingTime="45.00" waitingCount="1" stopTime="0.00" timeLoss="55.08" rerouteNo="0" devices="tripinfo_115" vType="DEFAULT_VEHTYPE" speedFactor="1.03" vaporized=""/>
    <tripinfo id="33" depart="70.00" departLane="-231177697#2_0" departPos="5.10" departSpeed="0.00" departDelay="0.12" arrival="329.00" arrivalLane="-256961141#1_1" arrivalPos="204.72" arrivalSpeed="12.02" duration="259.00" routeLength="1204.36" waitingTime="145.00" waitingCount="2" stopTime="0.00" timeLoss="165.70" rerouteNo="0" devices="tripinfo_33" vType="DEFAULT_VEHTYPE" speedFactor="0.88" vaporized=""/>
    <tripinfo id="128" depart="272.00" departLane="-218680176#1_0" departPos="5.10" departSpeed="0.00" departDelay="0.94" arrival="330.00" arrivalLane="153964138#0_2" arrivalPos="337.99" arrivalSpeed="16.26" duration="58.00" routeLength="462.27" waitingTime="20.00" waitingCount="1" stopTime="0.00" timeLoss="29.28" rerouteNo="0" devices="tripinfo_128" vType="DEFAULT_VEHTYPE" speedFactor="1.05" vaporized=""/>
    <tripinfo id="103" depart="219.00" departLane="-661251539_0" departPos="5.10" departSpeed="0.00" departDelay="0.88" arrival="331.00" arrivalLane="-256961141#1_1" arrivalPos="204.72" arrivalSpeed="12.04" duration="112.00" routeLength="872.91" waitingTime="31.00" waitingCount="1" stopTime="0.00" timeLoss="47.20" rerouteNo="0" devices="tripinfo_103" vType="DEFAULT_VEHTYPE" speedFactor="0.94" vaporized=""/>