<?xml version="1.0" encoding="UTF-8"?>

<!-- generated on 2024-09-02 17:55:37 by Eclipse SUMO sumo Version 1.20.0
<configuration xmlns:xsi="http://www.w3.org/2001/XMLSchema-instance" xsi:noNamespaceSchemaLocation="http://sumo.dlr.de/xsd/sumoConfiguration.xsd">

    <input>
        <net-file value="c:\self\School\Master\Disertation\code\RESCO\resco_benchmark\environments/unirii/osm.net.xml.gz"/>
        <route-files value="c:\self\School\Master\Disertation\code\RESCO\resco_benchmark\environments/unirii/osm.passenger.trips.xml"/>
        <additional-files value="c:\self\School\Master\Disertation\code\RESCO\resco_benchmark\environments/unirii/osm.poly.xml.gz"/>
    </input>

    <output>
        <tripinfo-output value="C:\self\School\Master\Disertation\code\RESCO\results\IDQN-tr0-unirii-0-drq_norm-wait_norm\tripinfo_71.xml"/>
        <tripinfo-output.write-unfinished value="true"/>
    </output>

    <processing>
        <ignore-route-errors value="true"/>
        <time-to-teleport value="-1"/>
    </processing>

    <routing>
        <device.rerouting.adaptation-steps value="18"/>
        <device.rerouting.adaptation-interval value="10"/>
    </routing>

    <report>
        <verbose value="true"/>
        <no-warnings value="True"/>
        <duration-log.statistics value="true"/>
        <no-step-log value="True"/>
    </report>

    <traci_server>
        <remote-port value="51891"/>
    </traci_server>

    <random_number>
        <random value="true"/>
    </random_number>

    <gui_only>
        <gui-settings-file value="c:\self\School\Master\Disertation\code\RESCO\resco_benchmark\environments/unirii/osm.view.xml"/>
    </gui_only>

</configuration>
-->

<tripinfos xmlns:xsi="http://www.w3.org/2001/XMLSchema-instance" xsi:noNamespaceSchemaLocation="http://sumo.dlr.de/xsd/tripinfo_file.xsd">
    <tripinfo id="6" depart="13.00" departLane="-218680176#1_0" departPos="5.10" departSpeed="0.00" departDelay="0.29" arrival="52.00" arrivalLane="153964138#0_2" arrivalPos="337.99" arrivalSpeed="17.90" duration="39.00" routeLength="462.27" waitingTime="3.00" waitingCount="1" stopTime="0.00" timeLoss="12.61" rerouteNo="0" devices="tripinfo_6" vType="DEFAULT_VEHTYPE" speedFactor="1.14" vaporized=""/>
    <tripinfo id="10" depart="23.00" departLane="978867529_0" departPos="5.10" departSpeed="0.00" departDelay="1.82" arrival="63.00" arrivalLane="231177697#0_1" arrivalPos="74.44" arrivalSpeed="13.72" duration="40.00" routeLength="437.06" waitingTime="2.00" waitingCount="1" stopTime="0.00" timeLoss="11.20" rerouteNo="0" devices="tripinfo_10" vType="DEFAULT_VEHTYPE" speedFactor="0.99" vaporized=""/>
    <tripinfo id="15" depart="33.00" departLane="978867529_0" departPos="5.10" departSpeed="0.00" departDelay="1.24" arrival="66.00" arrivalLane="231177697#0_1" arrivalPos="74.44" arrivalSpeed="13.99" duration="33.00" routeLength="437.06" waitingTime="0.00" waitingCount="0" stopTime="0.00" timeLoss="4.62" rerouteNo="0" devices="tripinfo_15" vType="DEFAULT_VEHTYPE" speedFactor="1.01" vaporized=""/>
    <tripinfo id="2" depart="5.00" departLane="666135205#0_0" departPos="5.10" departSpeed="0.00" departDelay="0.76" arrival="87.00" arrivalLane="231177697#0_0" arrivalPos="74.44" arrivalSpeed="13.02" duration="82.00" routeLength="649.17" waitingTime="20.00" waitingCount="1" stopTime="0.00" timeLoss="31.27" rerouteNo="0" devices="tripinfo_2" vType="DEFAULT_VEHTYPE" speedFactor="0.96" vaporized=""/>
    <tripinfo id="16" depart="34.00" departLane="256961141#0_0" departPos="5.10" departSpeed="0.00" departDelay="0.12" arrival="97.00" arrivalLane="450554042#0_0" arrivalPos="622.66" arrivalSpeed="14.92" duration="63.00" routeLength="853.74" waitingTime="0.00" waitingCount="0" stopTime="0.00" timeLoss="5.72" rerouteNo="0" devices="tripinfo_16" vType="DEFAULT_VEHTYPE" speedFactor="0.96" vaporized=""/>
    <tripinfo id="0" depart="0.00" departLane="65746828#0_0" departPos="5.10" departSpeed="0.00" departDelay="0.00" arrival="125.00" arrivalLane="-256961141#1_1" arrivalPos="204.72" arrivalSpeed="12.92" duration="125.00" routeLength="931.50" waitingTime="46.00" waitingCount="1" stopTime="0.00" timeLoss="58.88" rerouteNo="0" devices="tripinfo_0" vType="DEFAULT_VEHTYPE" speedFactor="0.95" vaporized=""/>
    <tripinfo id="4" depart="9.00" departLane="-661251539_0" departPos="5.10" departSpeed="0.00" departDelay="0.53" arrival="126.00" arrivalLane="-256961141#1_1" arrivalPos="204.72" arrivalSpeed="14.46" duration="117.00" routeLength="872.91" waitingTime="45.00" waitingCount="1" stopTime="0.00" timeLoss="61.85" rerouteNo="0" devices="tripinfo_4" vType="DEFAULT_VEHTYPE" speedFactor="1.10" vaporized=""/>
    <tripinfo id="20" depart="43.00" departLane="666135205#0_0" departPos="5.10" departSpeed="0.00" departDelay="0.65" arrival="128.00" arrivalLane="-256961141#1_1" arrivalPos="204.72" arrivalSpeed="12.91" duration="85.00" routeLength="1068.72" waitingTime="0.00" waitingCount="0" stopTime="0.00" timeLoss="10.60" rerouteNo="0" devices="tripinfo_20" vType="DEFAULT_VEHTYPE" speedFactor="0.97" vaporized=""/>
    <tripinfo id="40" depart="85.00" departLane="65746828#0_0" departPos="5.10" departSpeed="0.00" departDelay="0.29" arrival="132.00" arrivalLane="210831345#1_0" arrivalPos="264.29" arrivalSpeed="11.74" duration="47.00" routeLength="446.75" waitingTime="3.00" waitingCount="1" stopTime="0.00" timeLoss="11.77" rerouteNo="0" devices="tripinfo_40" vType="DEFAULT_VEHTYPE" speedFactor="0.92" vaporized=""/>
    <tripinfo id="30" depart="64.00" departLane="E8_0" departPos="5.10" departSpeed="0.00" departDelay="0.47" arrival="133.00" arrivalLane="226276377#0_1" arrivalPos="135.52" arrivalSpeed="12.40" duration="69.00" routeLength="784.51" waitingTime="0.00" waitingCount="0" stopTime="0.00" timeLoss="5.53" rerouteNo="0" devices="tripinfo_30" vType="DEFAULT_VEHTYPE" speedFactor="0.90" vaporized=""/>
    <tripinfo id="32" depart="68.00" departLane="978867529_0" departPos="5.10" departSpeed="0.00" departDelay="0.24" arrival="138.00" arrivalLane="231177697#0_1" arrivalPos="74.44" arrivalSpeed="12.70" duration="70.00" routeLength="437.06" waitingTime="31.00" waitingCount="1" stopTime="0.00" timeLoss="40.58" rerouteNo="0" devices="tripinfo_32" vType="DEFAULT_VEHTYPE" speedFactor="0.96" vaporized=""/>
    <tripinfo id="7" depart="15.00" departLane="65746828#0_0" departPos="5.10" departSpeed="0.00" departDelay="0.18" arrival="142.00" arrivalLane="218680176#0_1" arrivalPos="98.94" arrivalSpeed="10.52" duration="127.00" routeLength="602.71" waitingTime="60.00" waitingCount="2" stopTime="0.00" timeLoss="73.48" rerouteNo="0" devices="tripinfo_7" vType="DEFAULT_VEHTYPE" speedFactor="0.83" vaporized=""/>
    <tripinfo id="5" depart="11.00" departLane="-226276377#1_0" departPos="5.10" departSpeed="0.00" departDelay="0.41" arrival="144.00" arrivalLane="218680176#0_1" arrivalPos="98.94" arrivalSpeed="14.36" duration="133.00" routeLength="1158.55" waitingTime="31.00" waitingCount="3" stopTime="0.00" timeLoss="54.94" rerouteNo="0" devices="tripinfo_5" vType="DEFAULT_VEHTYPE" speedFactor="1.04" vaporized=""/>
    <tripinfo id="17" depart="36.00" departLane="-661251539_0" departPos="5.10" departSpeed="0.00" departDelay="0.00" arrival="145.00" arrivalLane="218680176#0_1" arrivalPos="98.94" arrivalSpeed="13.26" duration="109.00" routeLength="1001.21" waitingTime="20.00" waitingCount="1" stopTime="0.00" timeLoss="34.83" rerouteNo="0" devices="tripinfo_17" vType="DEFAULT_VEHTYPE" speedFactor="0.99" vaporized=""/>
    <tripinfo id="3" depart="7.00" departLane="E8_0" departPos="5.10" departSpeed="0.00" departDelay="0.65" arrival="146.00" arrivalLane="-256961141#1_0" arrivalPos="204.72" arrivalSpeed="13.13" duration="139.00" routeLength="832.89" waitingTime="70.00" waitingCount="1" stopTime="0.00" timeLoss="79.52" rerouteNo="0" devices="tripinfo_3" vType="DEFAULT_VEHTYPE" speedFactor="1.02" vaporized=""/>
    <tripinfo id="27" depart="58.00" departLane="65746828#0_0" departPos="5.10" departSpeed="0.00" departDelay="0.82" arrival="157.00" arrivalLane="226276377#0_0" arrivalPos="135.52" arrivalSpeed="13.08" duration="99.00" routeLength="841.69" waitingTime="28.00" waitingCount="1" stopTime="0.00" timeLoss="39.71" rerouteNo="0" devices="tripinfo_27" vType="DEFAULT_VEHTYPE" speedFactor="0.94" vaporized=""/>
    <tripinfo id="35" depart="75.00" departLane="-226276377#1_0" departPos="5.10" departSpeed="0.00" departDelay="0.88" arrival="168.00" arrivalLane="450554042#0_0" arrivalPos="622.66" arrivalSpeed="14.62" duration="93.00" routeLength="763.53" waitingTime="32.00" waitingCount="1" stopTime="0.00" timeLoss="42.13" rerouteNo="0" devices="tripinfo_35" vType="DEFAULT_VEHTYPE" speedFactor="0.95" vaporized=""/>
    <tripinfo id="50" depart="106.00" departLane="-218680176#1_0" departPos="5.10" departSpeed="0.00" departDelay="0.12" arrival="172.00" arrivalLane="231177697#0_0" arrivalPos="74.44" arrivalSpeed="11.51" duration="66.00" routeLength="205.97" waitingTime="37.00" waitingCount="1" stopTime="0.00" timeLoss="48.88" rerouteNo="0" devices="tripinfo_50" vType="DEFAULT_VEHTYPE" speedFactor="0.90" vaporized=""/>
    <tripinfo id="68" depart="144.00" departLane="-218680176#1_0" departPos="5.10" departSpeed="0.00" departDelay="0.00" arrival="180.00" arrivalLane="231177697#0_0" arrivalPos="74.44" arrivalSpeed="11.39" duration="36.00" routeLength="205.97" waitingTime="5.00" waitingCount="1" stopTime="0.00" timeLoss="18.30" rerouteNo="0" devices="tripinfo_68" vType="DEFAULT_VEHTYPE" speedFactor="0.86" vaporized=""/>
    <tripinfo id="28" depart="60.00" departLane="-226276377#1_0" departPos="5.10" departSpeed="0.00" departDelay="0.71" arrival="190.00" arrivalLane="231177697#0_0" arrivalPos="74.44" arrivalSpeed="11.42" duration="130.00" routeLength="1114.63" waitingTime="23.00" waitingCount="3" stopTime="0.00" timeLoss="44.62" rerouteNo="0" devices="tripinfo_28" vType="DEFAULT_VEHTYPE" speedFactor="0.91" vaporized=""/>
    <tripinfo id="61" depart="130.00" departLane="978867529_0" departPos="5.10" departSpeed="0.00" departDelay="0.82" arrival="191.00" arrivalLane="218680176#0_0" arrivalPos="98.94" arrivalSpeed="13.47" duration="61.00" routeLength="442.15" waitingTime="22.00" waitingCount="1" stopTime="0.00" timeLoss="33.16" rerouteNo="0" devices="tripinfo_61" vType="DEFAULT_VEHTYPE" speedFactor="1.06" vaporized=""/>
    <tripinfo id="18" depart="39.00" departLane="978867529_0" departPos="5.10" departSpeed="0.00" departDelay="0.88" arrival="192.00" arrivalLane="226276377#0_0" arrivalPos="135.52" arrivalSpeed="12.03" duration="153.00" routeLength="1369.55" waitingTime="37.00" waitingCount="3" stopTime="0.00" timeLoss="59.27" rerouteNo="0" devices="tripinfo_18" vType="DEFAULT_VEHTYPE" speedFactor="0.96" vaporized=""/>
    <tripinfo id="41" depart="88.00" departLane="65746828#0_0" departPos="5.10" departSpeed="0.00" departDelay="1.18" arrival="193.00" arrivalLane="450554042#0_0" arrivalPos="622.66" arrivalSpeed="15.20" duration="105.00" routeLength="1340.72" waitingTime="0.00" waitingCount="0" stopTime="0.00" timeLoss="14.82" rerouteNo="0" devices="tripinfo_41" vType="DEFAULT_VEHTYPE" speedFactor="0.92" vaporized=""/>
    <tripinfo id="31" depart="66.00" departLane="65746828#0_0" departPos="5.10" departSpeed="0.00" departDelay="0.35" arrival="194.00" arrivalLane="231177697#0_0" arrivalPos="74.44" arrivalSpeed="11.19" duration="128.00" routeLength="558.79" waitingTime="68.00" waitingCount="1" stopTime="0.00" timeLoss="81.47" rerouteNo="0" devices="tripinfo_31" vType="DEFAULT_VEHTYPE" speedFactor="0.90" vaporized=""/>
    <tripinfo id="14" depart="30.00" departLane="978867529_0" departPos="5.10" departSpeed="0.00" departDelay="0.35" arrival="195.00" arrivalLane="226276377#0_0" arrivalPos="135.52" arrivalSpeed="11.70" duration="165.00" routeLength="1369.55" waitingTime="37.00" waitingCount="4" stopTime="0.00" timeLoss="66.44" rerouteNo="0" devices="tripinfo_14" vType="DEFAULT_VEHTYPE" speedFactor="0.91" vaporized=""/>
    <tripinfo id="19" depart="42.00" departLane="978867529_0" departPos="5.10" departSpeed="0.00" departDelay="1.76" arrival="199.00" arrivalLane="226276377#0_0" arrivalPos="135.52" arrivalSpeed="11.13" duration="157.00" routeLength="1369.55" waitingTime="24.00" waitingCount="3" stopTime="0.00" timeLoss="53.40" rerouteNo="0" devices="tripinfo_19" vType="DEFAULT_VEHTYPE" speedFactor="0.87" vaporized=""/>
    <tripinfo id="54" depart="115.00" departLane="256961141#0_0" departPos="5.10" departSpeed="0.00" departDelay="0.65" arrival="200.00" arrivalLane="450554042#0_0" arrivalPos="622.66" arrivalSpeed="14.21" duration="85.00" routeLength="853.74" waitingTime="16.00" waitingCount="1" stopTime="0.00" timeLoss="25.85" rerouteNo="0" devices="tripinfo_54" vType="DEFAULT_VEHTYPE" speedFactor="0.93" vaporized=""/>
    <tripinfo id="52" depart="111.00" departLane="-231177697#2_0" departPos="5.10" departSpeed="0.00" departDelay="0.88" arrival="201.00" arrivalLane="226276377#0_0" arrivalPos="135.52" arrivalSpeed="13.68" duration="90.00" routeLength="1114.55" waitingTime="0.00" waitingCount="0" stopTime="0.00" timeLoss="19.12" rerouteNo="0" devices="tripinfo_52" vType="DEFAULT_VEHTYPE" speedFactor="1.07" vaporized=""/>
    <tripinfo id="42" depart="89.00" departLane="-661251539_0" departPos="5.10" departSpeed="0.00" departDelay="0.06" arrival="203.00" arrivalLane="153964138#0_2" arrivalPos="337.99" arrivalSpeed="17.29" duration="114.00" routeLength="1239.04" waitingTime="12.00" waitingCount="2" stopTime="0.00" timeLoss="32.70" rerouteNo="0" devices="tripinfo_42" vType="DEFAULT_VEHTYPE" speedFactor="1.05" vaporized=""/>
    <tripinfo id="47" depart="100.00" departLane="-218680176#1_0" departPos="5.10" departSpeed="0.00" departDelay="0.47" arrival="203.00" arrivalLane="210831347#0_0" arrivalPos="149.88" arrivalSpeed="12.31" duration="103.00" routeLength="560.58" waitingTime="40.00" waitingCount="1" stopTime="0.00" timeLoss="55.80" rerouteNo="0" devices="tripinfo_47" vType="DEFAULT_VEHTYPE" speedFactor="0.89" vaporized=""/>
    <tripinfo id="25" depart="53.00" departLane="-661251539_0" departPos="5.10" departSpeed="0.00" departDelay="0.06" arrival="204.00" arrivalLane="153964138#0_1" arrivalPos="337.99" arrivalSpeed="15.62" duration="151.00" routeLength="1239.04" waitingTime="42.00" waitingCount="3" stopTime="0.00" timeLoss="64.23" rerouteNo="0" devices="tripinfo_25" vType="DEFAULT_VEHTYPE" speedFactor="0.98" vaporized=""/>
    <tripinfo id="59" depart="125.00" departLane="65746828#0_0" departPos="5.10" departSpeed="0.00" departDelay="0.06" arrival="205.00" arrivalLane="153964138#0_2" arrivalPos="337.99" arrivalSpeed="17.81" duration="80.00" routeLength="834.49" waitingTime="13.00" waitingCount="1" stopTime="0.00" timeLoss="27.32" rerouteNo="0" devices="tripinfo_59" vType="DEFAULT_VEHTYPE" speedFactor="1.08" vaporized=""/>
    <tripinfo id="11" depart="24.00" departLane="-661251539_0" departPos="5.10" departSpeed="0.00" departDelay="0.71" arrival="206.00" arrivalLane="153964138#0_0" arrivalPos="337.99" arrivalSpeed="15.09" duration="182.00" routeLength="1239.04" waitingTime="69.00" waitingCount="2" stopTime="0.00" timeLoss="87.89" rerouteNo="0" devices="tripinfo_11" vType="DEFAULT_VEHTYPE" speedFactor="0.92" vaporized=""/>
    <tripinfo id="26" depart="56.00" departLane="-231177697#2_0" departPos="5.10" departSpeed="0.00" departDelay="0.94" arrival="219.00" arrivalLane="450554042#0_0" arrivalPos="622.66" arrivalSpeed="17.48" duration="163.00" routeLength="1613.58" waitingTime="41.00" waitingCount="2" stopTime="0.00" timeLoss="69.21" rerouteNo="0" devices="tripinfo_26" vType="DEFAULT_VEHTYPE" speedFactor="1.11" vaporized=""/>
    <tripinfo id="29" depart="63.00" departLane="-226276377#1_0" departPos="5.10" departSpeed="0.00" departDelay="1.59" arrival="219.00" arrivalLane="210831347#0_1" arrivalPos="149.88" arrivalSpeed="14.16" duration="156.00" routeLength="888.52" waitingTime="82.00" waitingCount="2" stopTime="0.00" timeLoss="97.54" rerouteNo="0" devices="tripinfo_29" vType="DEFAULT_VEHTYPE" speedFactor="1.05" vaporized=""/>
    <tripinfo id="12" depart="26.00" departLane="E8_0" departPos="5.10" departSpeed="0.00" departDelay="0.59" arrival="221.00" arrivalLane="210831347#0_1" arrivalPos="149.88" arrivalSpeed="16.39" duration="195.00" routeLength="1367.17" waitingTime="95.00" waitingCount="2" stopTime="0.00" timeLoss="114.08" rerouteNo="0" devices="tripinfo_12" vType="DEFAULT_VEHTYPE" speedFactor="1.18" vaporized=""/>
    <tripinfo id="13" depart="28.00" departLane="-218680176#1_0" departPos="5.10" departSpeed="0.00" departDelay="0.47" arrival="223.00" arrivalLane="-256961141#1_1" arrivalPos="204.72" arrivalSpeed="13.85" duration="195.00" routeLength="1207.38" waitingTime="99.00" waitingCount="2" stopTime="0.00" timeLoss="113.76" rerouteNo="0" devices="tripinfo_13" vType="DEFAULT_VEHTYPE" speedFactor="1.01" vaporized=""/>
    <tripinfo id="75" depart="159.00" departLane="E8_0" departPos="5.10" departSpeed="0.00" departDelay="0.18" arrival="223.00" arrivalLane="226276377#0_1" arrivalPos="135.52" arrivalSpeed="13.38" duration="64.00" routeLength="784.51" waitingTime="0.00" waitingCount="0" stopTime="0.00" timeLoss="6.15" rerouteNo="0" devices="tripinfo_75" vType="DEFAULT_VEHTYPE" speedFactor="0.99" vaporized=""/>
    <tripinfo id="9" depart="20.00" departLane="978867529_0" departPos="5.10" departSpeed="0.00" departDelay="0.94" arrival="225.00" arrivalLane="-256961141#1_1" arrivalPos="204.72" arrivalSpeed="12.48" duration="205.00" routeLength="1459.36" waitingTime="82.00" waitingCount="3" stopTime="0.00" timeLoss="108.22" rerouteNo="0" devices="tripinfo_9" vType="DEFAULT_VEHTYPE" speedFactor="0.99" vaporized=""/>
    <tripinfo id="33" depart="70.00" departLane="-231177697#2_0" departPos="5.10" departSpeed="0.00" departDelay="0.12" arrival="227.00" arrivalLane="-256961141#1_1" arrivalPos="204.72" arrivalSpeed="15.18" duration="157.00" routeLength="1204.36" waitingTime="57.00" waitingCount="2" stopTime="0.00" timeLoss="83.15" rerouteNo="0" devices="tripinfo_33" vType="DEFAULT_VEHTYPE" speedFactor="1.11" vaporized=""/>
    <tripinfo id="53" depart="113.00" departLane="-226276377#1_0" departPos="5.10" departSpeed="0.00" departDelay="0.76" arrival="227.00" arrivalLane="210831347#0_1" arrivalPos="149.88" arrivalSpeed="10.09" duration="114.00" routeLength="888.52" waitingTime="21.00" waitingCount="1" stopTime="0.00" timeLoss="34.79" rerouteNo="0" devices="tripinfo_53" vType="DEFAULT_VEHTYPE" speedFactor="0.77" vaporized=""/>
    <tripinfo id="1" depart="3.00" departLane="-231177697#2_0" departPos="5.10" departSpeed="0.00" departDelay="0.88" arrival="229.00" arrivalLane="210831345#1_1" arrivalPos="264.29" arrivalSpeed="12.41" duration="226.00" routeLength="696.92" waitingTime="163.00" waitingCount="1" stopTime="0.00" timeLoss="172.27" rerouteNo="0" devices="tripinfo_1" vType="DEFAULT_VEHTYPE" speedFactor="0.95" vaporized=""/>
    <tripinfo id="21" depart="45.00" departLane="-231177697#2_0" departPos="5.10" departSpeed="0.00" departDelay="0.53" arrival="231.00" arrivalLane="210831345#1_1" arrivalPos="264.29" arrivalSpeed="14.22" duration="186.00" routeLength="696.92" waitingTime="119.00" waitingCount="2" stopTime="0.00" timeLoss="136.76" rerouteNo="0" devices="tripinfo_21" vType="DEFAULT_VEHTYPE" speedFactor="1.05" vaporized=""/>
    <tripinfo id="34" depart="72.00" departLane="-231177697#2_0" departPos="5.10" departSpeed="0.00" departDelay="0.00" arrival="233.00" arrivalLane="210831345#1_1" arrivalPos="264.29" arrivalSpeed="14.08" duration="161.00" routeLength="696.92" waitingTime="90.00" waitingCount="2" stopTime="0.00" timeLoss="111.79" rerouteNo="0" devices="tripinfo_34" vType="DEFAULT_VEHTYPE" speedFactor="1.05" vaporized=""/>
    <tripinfo id="39" depart="83.00" departLane="-231177697#2_0" departPos="5.10" departSpeed="0.00" departDelay="0.41" arrival="234.00" arrivalLane="210831345#1_1" arrivalPos="264.29" arrivalSpeed="14.25" duration="151.00" routeLength="696.92" waitingTime="81.00" waitingCount="2" stopTime="0.00" timeLoss="102.46" rerouteNo="0" devices="tripinfo_39" vType="DEFAULT_VEHTYPE" speedFactor="1.05" vaporized=""/>
    <tripinfo id="57" depart="121.00" departLane="E8_0" departPos="5.10" departSpeed="0.00" departDelay="0.29" arrival="235.00" arrivalLane="39907424_0" arrivalPos="316.44" arrivalSpeed="13.57" duration="114.00" routeLength="1303.68" waitingTime="6.00" waitingCount="2" stopTime="0.00" timeLoss="22.65" rerouteNo="0" devices="tripinfo_57" vType="DEFAULT_VEHTYPE" speedFactor="0.99" vaporized=""/>
    <tripinfo id="44" depart="94.00" departLane="-218680176#1_0" departPos="5.10" departSpeed="0.00" departDelay="0.82" arrival="237.00" arrivalLane="-256961141#1_1" arrivalPos="204.72" arrivalSpeed="12.22" duration="143.00" routeLength="1207.38" waitingTime="44.00" waitingCount="1" stopTime="0.00" timeLoss="58.93" rerouteNo="0" devices="tripinfo_44" vType="DEFAULT_VEHTYPE" speedFactor="0.97" vaporized=""/>
    <tripinfo id="22" depart="47.00" departLane="-218680176#1_0" departPos="5.10" departSpeed="0.00" departDelay="0.41" arrival="238.00" arrivalLane="210831345#1_1" arrivalPos="264.29" arrivalSpeed="11.77" duration="191.00" routeLength="699.94" waitingTime="113.00" waitingCount="3" stopTime="0.00" timeLoss="134.13" rerouteNo="0" devices="tripinfo_22" vType="DEFAULT_VEHTYPE" speedFactor="0.91" vaporized=""/>
    <tripinfo id="23" depart="50.00" departLane="-218680176#1_0" departPos="5.10" departSpeed="0.00" departDelay="1.29" arrival="239.00" arrivalLane="210831345#1_0" arrivalPos="264.29" arrivalSpeed="14.11" duration="189.00" routeLength="699.94" waitingTime="112.00" waitingCount="3" stopTime="0.00" timeLoss="139.74" rerouteNo="0" devices="tripinfo_23" vType="DEFAULT_VEHTYPE" speedFactor="1.05" vaporized=""/>
    <tripinfo id="49" depart="105.00" departLane="E8_0" departPos="5.10" departSpeed="0.00" departDelay="1.24" arrival="242.00" arrivalLane="39907424_0" arrivalPos="316.44" arrivalSpeed="11.01" duration="137.00" routeLength="1303.68" waitingTime="9.00" waitingCount="1" stopTime="0.00" timeLoss="28.25" rerouteNo="0" devices="tripinfo_49" vType="DEFAULT_VEHTYPE" speedFactor="0.84" vaporized=""/>
    <tripinfo id="62" depart="132.00" departLane="-218680176#1_0" departPos="5.10" departSpeed="0.00" departDelay="0.71" arrival="243.00" arrivalLane="210831345#1_1" arrivalPos="264.29" arrivalSpeed="11.28" duration="111.00" routeLength="699.94" waitingTime="31.00" waitingCount="2" stopTime="0.00" timeLoss="53.00" rerouteNo="0" devices="tripinfo_62" vType="DEFAULT_VEHTYPE" speedFactor="0.90" vaporized=""/>
    <tripinfo id="55" depart="117.00" departLane="978867529_0" departPos="5.10" departSpeed="0.00" departDelay="0.53" arrival="244.00" arrivalLane="210831345#1_0" arrivalPos="264.29" arrivalSpeed="13.77" duration="127.00" routeLength="951.92" waitingTime="41.00" waitingCount="2" stopTime="0.00" timeLoss="62.48" rerouteNo="0" devices="tripinfo_55" vType="DEFAULT_VEHTYPE" speedFactor="1.02" vaporized=""/>
    <tripinfo id="36" depart="77.00" departLane="978867529_0" departPos="5.10" departSpeed="0.00" departDelay="0.76" arrival="245.00" arrivalLane="210831345#1_1" arrivalPos="264.29" arrivalSpeed="13.83" duration="168.00" routeLength="951.92" waitingTime="78.00" waitingCount="2" stopTime="0.00" timeLoss="105.46" rerouteNo="0" devices="tripinfo_36" vType="DEFAULT_VEHTYPE" speedFactor="1.05" vaporized=""/>
    <tripinfo id="46" depart="98.00" departLane="978867529_0" departPos="5.10" departSpeed="0.00" departDelay="0.59" arrival="245.00" arrivalLane="210831347#0_0" arrivalPos="149.88" arrivalSpeed="11.58" duration="147.00" routeLength="812.56" waitingTime="64.00" waitingCount="3" stopTime="0.00" timeLoss="82.44" rerouteNo="0" devices="tripinfo_46" vType="DEFAULT_VEHTYPE" speedFactor="0.87" vaporized=""/>
    <tripinfo id="74" depart="157.00" departLane="-226276377#1_0" departPos="5.10" departSpeed="0.00" departDelay="0.29" arrival="251.00" arrivalLane="210831345#1_0" arrivalPos="264.29" arrivalSpeed="14.15" duration="94.00" routeLength="977.93" waitingTime="15.00" waitingCount="1" stopTime="0.00" timeLoss="28.94" rerouteNo="0" devices="tripinfo_74" vType="DEFAULT_VEHTYPE" speedFactor="1.04" vaporized=""/>
    <tripinfo id="79" depart="168.00" departLane="-231177697#2_0" departPos="5.10" departSpeed="0.00" departDelay="0.71" arrival="256.00" arrivalLane="153964138#0_0" arrivalPos="337.99" arrivalSpeed="13.72" duration="88.00" routeLength="417.38" waitingTime="48.00" waitingCount="1" stopTime="0.00" timeLoss="56.87" rerouteNo="0" devices="tripinfo_79" vType="DEFAULT_VEHTYPE" speedFactor="0.86" vaporized=""/>
    <tripinfo id="38" depart="81.00" departLane="E8_0" departPos="5.10" departSpeed="0.00" departDelay="0.53" arrival="265.00" arrivalLane="218680176#0_1" arrivalPos="98.94" arrivalSpeed="15.79" duration="184.00" routeLength="1637.20" waitingTime="57.00" waitingCount="3" stopTime="0.00" timeLoss="85.98" rerouteNo="0" devices="tripinfo_38" vType="DEFAULT_VEHTYPE" speedFactor="1.17" vaporized=""/>
    <tripinfo id="43" depart="92.00" departLane="E8_0" departPos="5.10" departSpeed="0.00" departDelay="0.94" arrival="268.00" arrivalLane="218680176#0_1" arrivalPos="98.94" arrivalSpeed="12.11" duration="176.00" routeLength="1637.20" waitingTime="33.00" waitingCount="1" stopTime="0.00" timeLoss="48.08" rerouteNo="0" devices="tripinfo_43" vType="DEFAULT_VEHTYPE" speedFactor="0.89" vaporized=""/>
    <tripinfo id="51" depart="108.00" departLane="666135205#0_0" departPos="5.10" departSpeed="0.00" departDelay="0.00" arrival="270.00" arrivalLane="218680176#0_1" arrivalPos="98.94" arrivalSpeed="12.87" duration="162.00" routeLength="693.09" waitingTime="93.00" waitingCount="2" stopTime="0.00" timeLoss="108.49" rerouteNo="0" devices="tripinfo_51" vType="DEFAULT_VEHTYPE" speedFactor="0.96" vaporized=""/>
    <tripinfo id="92" depart="195.00" departLane="-661251539_0" departPos="5.10" departSpeed="0.00" departDelay="0.18" arrival="270.00" arrivalLane="210831347#0_1" arrivalPos="149.88" arrivalSpeed="12.97" duration="75.00" routeLength="731.18" waitingTime="6.00" waitingCount="1" stopTime="0.00" timeLoss="19.45" rerouteNo="0" devices="tripinfo_92" vType="DEFAULT_VEHTYPE" speedFactor="0.97" vaporized=""/>
    <tripinfo id="48" depart="102.00" departLane="E8_0" departPos="5.10" departSpeed="0.00" departDelay="0.35" arrival="272.00" arrivalLane="218680176#0_1" arrivalPos="98.94" arrivalSpeed="13.40" duration="170.00" routeLength="1637.20" waitingTime="26.00" waitingCount="2" stopTime="0.00" timeLoss="52.51" rerouteNo="0" devices="tripinfo_48" vType="DEFAULT_VEHTYPE" speedFactor="0.98" vaporized=""/>
    <tripinfo id="76" depart="161.00" departLane="-661251539_0" departPos="5.10" departSpeed="0.00" departDelay="0.06" arrival="274.00" arrivalLane="218680176#0_1" arrivalPos="98.94" arrivalSpeed="13.99" duration="113.00" routeLength="1001.21" waitingTime="23.00" waitingCount="1" stopTime="0.00" timeLoss="42.28" rerouteNo="0" devices="tripinfo_76" vType="DEFAULT_VEHTYPE" speedFactor="1.04" vaporized=""/>
    <tripinfo id="64" depart="136.00" departLane="978867529_0" departPos="5.10" departSpeed="0.00" departDelay="0.47" arrival="277.00" arrivalLane="39907424_0" arrivalPos="316.44" arrivalSpeed="12.62" duration="141.00" routeLength="1216.15" waitingTime="33.00" waitingCount="2" stopTime="0.00" timeLoss="53.62" rerouteNo="0" devices="tripinfo_64" vType="DEFAULT_VEHTYPE" speedFactor="0.94" vaporized=""/>
    <tripinfo id="89" depart="189.00" departLane="-661251539_0" departPos="5.10" departSpeed="0.00" departDelay="0.53" arrival="277.00" arrivalLane="218680176#0_1" arrivalPos="98.94" arrivalSpeed="12.44" duration="88.00" routeLength="1001.21" waitingTime="0.00" waitingCount="0" stopTime="0.00" timeLoss="12.04" rerouteNo="0" devices="tripinfo_89" vType="DEFAULT_VEHTYPE" speedFactor="0.97" vaporized=""/>
    <tripinfo id="71" depart="151.00" departLane="-231177697#2_0" departPos="5.10" departSpeed="0.00" departDelay="0.65" arrival="279.00" arrivalLane="39907424_0" arrivalPos="316.44" arrivalSpeed="15.07" duration="128.00" routeLength="961.15" waitingTime="43.00" waitingCount="1" stopTime="0.00" timeLoss="69.68" rerouteNo="0" devices="tripinfo_71" vType="DEFAULT_VEHTYPE" speedFactor="1.16" vaporized=""/>
    <tripinfo id="86" depart="183.00" departLane="256961141#0_0" departPos="5.10" departSpeed="0.00" departDelay="0.88" arrival="281.00" arrivalLane="39907424_0" arrivalPos="316.44" arrivalSpeed="13.29" duration="98.00" routeLength="873.95" waitingTime="23.00" waitingCount="1" stopTime="0.00" timeLoss="39.67" rerouteNo="0" devices="tripinfo_86" vType="DEFAULT_VEHTYPE" speedFactor="1.04" vaporized=""/>
    <tripinfo id="45" depart="97.00" departLane="-218680176#1_0" departPos="5.10" departSpeed="0.00" departDelay="1.71" arrival="291.00" arrivalLane="226276377#0_0" arrivalPos="135.52" arrivalSpeed="13.66" duration="194.00" routeLength="1117.57" waitingTime="100.00" waitingCount="2" stopTime="0.00" timeLoss="123.43" rerouteNo="0" devices="tripinfo_45" vType="DEFAULT_VEHTYPE" speedFactor="1.07" vaporized=""/>
    <tripinfo id="88" depart="187.00" departLane="-218680176#1_0" departPos="5.10" departSpeed="0.00" departDelay="0.65" arrival="292.00" arrivalLane="210831347#0_0" arrivalPos="149.88" arrivalSpeed="14.46" duration="105.00" routeLength="560.58" waitingTime="49.00" waitingCount="2" stopTime="0.00" timeLoss="66.41" rerouteNo="0" devices="tripinfo_88" vType="DEFAULT_VEHTYPE" speedFactor="1.10" vaporized=""/>
    <tripinfo id="78" depart="166.00" departLane="-661251539_0" departPos="5.10" departSpeed="0.00" departDelay="0.82" arrival="296.00" arrivalLane="226276377#0_0" arrivalPos="135.52" arrivalSpeed="11.71" duration="130.00" routeLength="783.10" waitingTime="46.00" waitingCount="2" stopTime="0.00" timeLoss="65.91" rerouteNo="0" devices="tripinfo_78" vType="DEFAULT_VEHTYPE" speedFactor="0.86" vaporized=""/>