<?xml version="1.0" encoding="UTF-8"?>

<!-- generated on 2024-09-02 17:45:25 by Eclipse SUMO sumo Version 1.20.0
<configuration xmlns:xsi="http://www.w3.org/2001/XMLSchema-instance" xsi:noNamespaceSchemaLocation="http://sumo.dlr.de/xsd/sumoConfiguration.xsd">

    <input>
        <net-file value="c:\self\School\Master\Disertation\code\RESCO\resco_benchmark\environments/unirii/osm.net.xml.gz"/>
        <route-files value="c:\self\School\Master\Disertation\code\RESCO\resco_benchmark\environments/unirii/osm.passenger.trips.xml"/>
        <additional-files value="c:\self\School\Master\Disertation\code\RESCO\resco_benchmark\environments/unirii/osm.poly.xml.gz"/>
    </input>

    <output>
        <tripinfo-output value="C:\self\School\Master\Disertation\code\RESCO\results\IDQN-tr0-unirii-0-drq_norm-wait_norm\tripinfo_2.xml"/>
        <tripinfo-output.write-unfinished value="true"/>
    </output>

    <processing>
        <ignore-route-errors value="true"/>
        <time-to-teleport value="-1"/>
    </processing>

    <routing>
        <device.rerouting.adaptation-steps value="18"/>
        <device.rerouting.adaptation-interval value="10"/>
    </routing>

    <report>
        <verbose value="true"/>
        <no-warnings value="True"/>
        <duration-log.statistics value="true"/>
        <no-step-log value="True"/>
    </report>

    <traci_server>
        <remote-port value="51466"/>
    </traci_server>

    <random_number>
        <random value="true"/>
    </random_number>

    <gui_only>
        <gui-settings-file value="c:\self\School\Master\Disertation\code\RESCO\resco_benchmark\environments/unirii/osm.view.xml"/>
    </gui_only>

</configuration>
-->

<tripinfos xmlns:xsi="http://www.w3.org/2001/XMLSchema-instance" xsi:noNamespaceSchemaLocation="http://sumo.dlr.de/xsd/tripinfo_file.xsd">
    <tripinfo id="4" depart="9.00" departLane="-661251539_0" departPos="5.10" departSpeed="0.00" departDelay="0.53" arrival="76.00" arrivalLane="-256961141#1_1" arrivalPos="204.72" arrivalSpeed="13.86" duration="67.00" routeLength="872.91" waitingTime="0.00" waitingCount="0" stopTime="0.00" timeLoss="9.18" rerouteNo="0" devices="tripinfo_4" vType="DEFAULT_VEHTYPE" speedFactor="1.05" vaporized=""/>
    <tripinfo id="0" depart="0.00" departLane="65746828#0_0" departPos="5.10" departSpeed="0.00" departDelay="0.00" arrival="78.00" arrivalLane="-256961141#1_1" arrivalPos="204.72" arrivalSpeed="15.72" duration="78.00" routeLength="931.50" waitingTime="5.00" waitingCount="1" stopTime="0.00" timeLoss="22.69" rerouteNo="0" devices="tripinfo_0" vType="DEFAULT_VEHTYPE" speedFactor="1.14" vaporized=""/>
    <tripinfo id="16" depart="34.00" departLane="256961141#0_0" departPos="5.10" departSpeed="0.00" departDelay="0.12" arrival="122.00" arrivalLane="450554042#0_0" arrivalPos="622.66" arrivalSpeed="16.76" duration="88.00" routeLength="853.74" waitingTime="22.00" waitingCount="1" stopTime="0.00" timeLoss="34.44" rerouteNo="0" devices="tripinfo_16" vType="DEFAULT_VEHTYPE" speedFactor="1.02" vaporized=""/>
    <tripinfo id="40" depart="85.00" departLane="65746828#0_0" departPos="5.10" departSpeed="0.00" departDelay="0.29" arrival="125.00" arrivalLane="210831345#1_0" arrivalPos="264.29" arrivalSpeed="12.53" duration="40.00" routeLength="446.75" waitingTime="0.00" waitingCount="0" stopTime="0.00" timeLoss="4.23" rerouteNo="0" devices="tripinfo_40" vType="DEFAULT_VEHTYPE" speedFactor="0.91" vaporized=""/>
    <tripinfo id="30" depart="64.00" departLane="E8_0" departPos="5.10" departSpeed="0.00" departDelay="0.47" arrival="126.00" arrivalLane="226276377#0_1" arrivalPos="135.52" arrivalSpeed="13.73" duration="62.00" routeLength="784.51" waitingTime="0.00" waitingCount="0" stopTime="0.00" timeLoss="5.85" rerouteNo="0" devices="tripinfo_30" vType="DEFAULT_VEHTYPE" speedFactor="1.01" vaporized=""/>
    <tripinfo id="6" depart="13.00" departLane="-218680176#1_0" departPos="5.10" departSpeed="0.00" departDelay="0.29" arrival="127.00" arrivalLane="153964138#0_2" arrivalPos="337.99" arrivalSpeed="18.75" duration="114.00" routeLength="462.27" waitingTime="76.00" waitingCount="1" stopTime="0.00" timeLoss="88.12" rerouteNo="0" devices="tripinfo_6" vType="DEFAULT_VEHTYPE" speedFactor="1.16" vaporized=""/>
    <tripinfo id="50" depart="106.00" departLane="-218680176#1_0" departPos="5.10" departSpeed="0.00" departDelay="0.12" arrival="145.00" arrivalLane="231177697#0_0" arrivalPos="74.44" arrivalSpeed="13.71" duration="39.00" routeLength="205.97" waitingTime="13.00" waitingCount="1" stopTime="0.00" timeLoss="24.30" rerouteNo="0" devices="tripinfo_50" vType="DEFAULT_VEHTYPE" speedFactor="1.01" vaporized=""/>
    <tripinfo id="68" depart="144.00" departLane="-218680176#1_0" departPos="5.10" departSpeed="0.00" departDelay="0.00" arrival="162.00" arrivalLane="231177697#0_0" arrivalPos="74.44" arrivalSpeed="14.50" duration="18.00" routeLength="205.97" waitingTime="0.00" waitingCount="0" stopTime="0.00" timeLoss="3.77" rerouteNo="0" devices="tripinfo_68" vType="DEFAULT_VEHTYPE" speedFactor="1.07" vaporized=""/>
    <tripinfo id="35" depart="75.00" departLane="-226276377#1_0" departPos="5.10" departSpeed="0.00" departDelay="0.88" arrival="171.00" arrivalLane="450554042#0_0" arrivalPos="622.66" arrivalSpeed="13.98" duration="96.00" routeLength="763.53" waitingTime="31.00" waitingCount="1" stopTime="0.00" timeLoss="41.43" rerouteNo="0" devices="tripinfo_35" vType="DEFAULT_VEHTYPE" speedFactor="0.88" vaporized=""/>
    <tripinfo id="47" depart="100.00" departLane="-218680176#1_0" departPos="5.10" departSpeed="0.00" departDelay="0.47" arrival="172.00" arrivalLane="210831347#0_0" arrivalPos="149.88" arrivalSpeed="13.29" duration="72.00" routeLength="560.58" waitingTime="17.00" waitingCount="2" stopTime="0.00" timeLoss="31.37" rerouteNo="0" devices="tripinfo_47" vType="DEFAULT_VEHTYPE" speedFactor="1.02" vaporized=""/>
    <tripinfo id="20" depart="43.00" departLane="666135205#0_0" departPos="5.10" departSpeed="0.00" departDelay="0.65" arrival="174.00" arrivalLane="-256961141#1_1" arrivalPos="204.72" arrivalSpeed="12.49" duration="131.00" routeLength="1068.72" waitingTime="38.00" waitingCount="2" stopTime="0.00" timeLoss="58.03" rerouteNo="0" devices="tripinfo_20" vType="DEFAULT_VEHTYPE" speedFactor="0.99" vaporized=""/>
    <tripinfo id="13" depart="28.00" departLane="-218680176#1_0" departPos="5.10" departSpeed="0.00" departDelay="0.47" arrival="183.00" arrivalLane="-256961141#1_1" arrivalPos="204.72" arrivalSpeed="14.16" duration="155.00" routeLength="1207.38" waitingTime="62.00" waitingCount="1" stopTime="0.00" timeLoss="80.07" rerouteNo="0" devices="tripinfo_13" vType="DEFAULT_VEHTYPE" speedFactor="1.09" vaporized=""/>
    <tripinfo id="9" depart="20.00" departLane="978867529_0" departPos="5.10" departSpeed="0.00" departDelay="0.94" arrival="193.00" arrivalLane="-256961141#1_1" arrivalPos="204.72" arrivalSpeed="11.78" duration="173.00" routeLength="1459.36" waitingTime="43.00" waitingCount="1" stopTime="0.00" timeLoss="63.96" rerouteNo="0" devices="tripinfo_9" vType="DEFAULT_VEHTYPE" speedFactor="0.88" vaporized=""/>
    <tripinfo id="79" depart="168.00" departLane="-231177697#2_0" departPos="5.10" departSpeed="0.00" departDelay="0.71" arrival="202.00" arrivalLane="153964138#0_0" arrivalPos="337.99" arrivalSpeed="15.36" duration="34.00" routeLength="417.38" waitingTime="0.00" waitingCount="0" stopTime="0.00" timeLoss="6.50" rerouteNo="0" devices="tripinfo_79" vType="DEFAULT_VEHTYPE" speedFactor="0.99" vaporized=""/>
    <tripinfo id="27" depart="58.00" departLane="65746828#0_0" departPos="5.10" departSpeed="0.00" departDelay="0.82" arrival="216.00" arrivalLane="226276377#0_0" arrivalPos="135.52" arrivalSpeed="15.86" duration="158.00" routeLength="841.69" waitingTime="93.00" waitingCount="1" stopTime="0.00" timeLoss="108.73" rerouteNo="0" devices="tripinfo_27" vType="DEFAULT_VEHTYPE" speedFactor="1.15" vaporized=""/>
    <tripinfo id="14" depart="30.00" departLane="978867529_0" departPos="5.10" departSpeed="0.00" departDelay="0.35" arrival="219.00" arrivalLane="226276377#0_0" arrivalPos="135.52" arrivalSpeed="14.30" duration="189.00" routeLength="1369.55" waitingTime="82.00" waitingCount="2" stopTime="0.00" timeLoss="103.54" rerouteNo="0" devices="tripinfo_14" vType="DEFAULT_VEHTYPE" speedFactor="1.06" vaporized=""/>
    <tripinfo id="19" depart="42.00" departLane="978867529_0" departPos="5.10" departSpeed="0.00" departDelay="1.76" arrival="220.00" arrivalLane="226276377#0_0" arrivalPos="135.52" arrivalSpeed="16.03" duration="178.00" routeLength="1369.55" waitingTime="76.00" waitingCount="2" stopTime="0.00" timeLoss="101.35" rerouteNo="0" devices="tripinfo_19" vType="DEFAULT_VEHTYPE" speedFactor="1.16" vaporized=""/>
    <tripinfo id="3" depart="7.00" departLane="E8_0" departPos="5.10" departSpeed="0.00" departDelay="0.65" arrival="222.00" arrivalLane="-256961141#1_0" arrivalPos="204.72" arrivalSpeed="13.18" duration="215.00" routeLength="832.89" waitingTime="143.00" waitingCount="1" stopTime="0.00" timeLoss="154.11" rerouteNo="0" devices="tripinfo_3" vType="DEFAULT_VEHTYPE" speedFactor="1.00" vaporized=""/>
    <tripinfo id="54" depart="115.00" departLane="256961141#0_0" departPos="5.10" departSpeed="0.00" departDelay="0.65" arrival="223.00" arrivalLane="450554042#0_0" arrivalPos="622.66" arrivalSpeed="14.94" duration="108.00" routeLength="853.74" waitingTime="41.00" waitingCount="1" stopTime="0.00" timeLoss="51.68" rerouteNo="0" devices="tripinfo_54" vType="DEFAULT_VEHTYPE" speedFactor="0.97" vaporized=""/>
    <tripinfo id="18" depart="39.00" departLane="978867529_0" departPos="5.10" departSpeed="0.00" departDelay="0.88" arrival="226.00" arrivalLane="226276377#0_0" arrivalPos="135.52" arrivalSpeed="11.52" duration="187.00" routeLength="1369.55" waitingTime="64.00" waitingCount="2" stopTime="0.00" timeLoss="87.89" rerouteNo="0" devices="tripinfo_18" vType="DEFAULT_VEHTYPE" speedFactor="0.91" vaporized=""/>
    <tripinfo id="52" depart="111.00" departLane="-231177697#2_0" departPos="5.10" departSpeed="0.00" departDelay="0.88" arrival="227.00" arrivalLane="226276377#0_0" arrivalPos="135.52" arrivalSpeed="13.39" duration="116.00" routeLength="1114.55" waitingTime="25.00" waitingCount="1" stopTime="0.00" timeLoss="42.34" rerouteNo="0" devices="tripinfo_52" vType="DEFAULT_VEHTYPE" speedFactor="1.02" vaporized=""/>
    <tripinfo id="45" depart="97.00" departLane="-218680176#1_0" departPos="5.10" departSpeed="0.00" departDelay="1.71" arrival="229.00" arrivalLane="226276377#0_0" arrivalPos="135.52" arrivalSpeed="14.19" duration="132.00" routeLength="1117.57" waitingTime="35.00" waitingCount="2" stopTime="0.00" timeLoss="60.72" rerouteNo="0" devices="tripinfo_45" vType="DEFAULT_VEHTYPE" speedFactor="1.06" vaporized=""/>
    <tripinfo id="2" depart="5.00" departLane="666135205#0_0" departPos="5.10" departSpeed="0.00" departDelay="0.76" arrival="237.00" arrivalLane="231177697#0_0" arrivalPos="74.44" arrivalSpeed="11.87" duration="232.00" routeLength="649.17" waitingTime="165.00" waitingCount="2" stopTime="0.00" timeLoss="180.25" rerouteNo="0" devices="tripinfo_2" vType="DEFAULT_VEHTYPE" speedFactor="0.93" vaporized=""/>
    <tripinfo id="31" depart="66.00" departLane="65746828#0_0" departPos="5.10" departSpeed="0.00" departDelay="0.35" arrival="240.00" arrivalLane="231177697#0_0" arrivalPos="74.44" arrivalSpeed="11.57" duration="174.00" routeLength="558.79" waitingTime="111.00" waitingCount="2" stopTime="0.00" timeLoss="127.38" rerouteNo="0" devices="tripinfo_31" vType="DEFAULT_VEHTYPE" speedFactor="0.89" vaporized=""/>
    <tripinfo id="61" depart="130.00" departLane="978867529_0" departPos="5.10" departSpeed="0.00" departDelay="0.82" arrival="241.00" arrivalLane="218680176#0_0" arrivalPos="98.94" arrivalSpeed="13.89" duration="111.00" routeLength="442.15" waitingTime="72.00" waitingCount="1" stopTime="0.00" timeLoss="82.12" rerouteNo="0" devices="tripinfo_61" vType="DEFAULT_VEHTYPE" speedFactor="1.02" vaporized=""/>
    <tripinfo id="28" depart="60.00" departLane="-226276377#1_0" departPos="5.10" departSpeed="0.00" departDelay="0.71" arrival="242.00" arrivalLane="231177697#0_0" arrivalPos="74.44" arrivalSpeed="11.85" duration="182.00" routeLength="1114.63" waitingTime="70.00" waitingCount="3" stopTime="0.00" timeLoss="97.48" rerouteNo="0" devices="tripinfo_28" vType="DEFAULT_VEHTYPE" speedFactor="0.92" vaporized=""/>
    <tripinfo id="90" depart="191.00" departLane="666135205#0_0" departPos="5.10" departSpeed="0.00" departDelay="0.41" arrival="246.00" arrivalLane="231177697#0_0" arrivalPos="74.44" arrivalSpeed="13.65" duration="55.00" routeLength="649.17" waitingTime="0.00" waitingCount="0" stopTime="0.00" timeLoss="9.28" rerouteNo="0" devices="tripinfo_90" vType="DEFAULT_VEHTYPE" speedFactor="1.07" vaporized=""/>
    <tripinfo id="63" depart="135.00" departLane="-218680176#1_0" departPos="5.10" departSpeed="0.00" departDelay="1.59" arrival="250.00" arrivalLane="450554042#0_0" arrivalPos="622.66" arrivalSpeed="15.41" duration="115.00" routeLength="1616.60" waitingTime="0.00" waitingCount="0" stopTime="0.00" timeLoss="9.32" rerouteNo="0" devices="tripinfo_63" vType="DEFAULT_VEHTYPE" speedFactor="0.98" vaporized=""/>
    <tripinfo id="26" depart="56.00" departLane="-231177697#2_0" departPos="5.10" departSpeed="0.00" departDelay="0.94" arrival="252.00" arrivalLane="450554042#0_0" arrivalPos="622.66" arrivalSpeed="13.82" duration="196.00" routeLength="1613.58" waitingTime="59.00" waitingCount="2" stopTime="0.00" timeLoss="78.94" rerouteNo="0" devices="tripinfo_26" vType="DEFAULT_VEHTYPE" speedFactor="0.88" vaporized=""/>
    <tripinfo id="11" depart="24.00" departLane="-661251539_0" departPos="5.10" departSpeed="0.00" departDelay="0.71" arrival="254.00" arrivalLane="153964138#0_1" arrivalPos="337.99" arrivalSpeed="16.33" duration="230.00" routeLength="1239.04" waitingTime="124.00" waitingCount="2" stopTime="0.00" timeLoss="144.14" rerouteNo="0" devices="tripinfo_11" vType="DEFAULT_VEHTYPE" speedFactor="1.00" vaporized=""/>
    <tripinfo id="42" depart="89.00" departLane="-661251539_0" departPos="5.10" departSpeed="0.00" departDelay="0.06" arrival="256.00" arrivalLane="153964138#0_1" arrivalPos="337.99" arrivalSpeed="15.17" duration="167.00" routeLength="1239.04" waitingTime="60.00" waitingCount="2" stopTime="0.00" timeLoss="79.63" rerouteNo="0" devices="tripinfo_42" vType="DEFAULT_VEHTYPE" speedFactor="0.98" vaporized=""/>
    <tripinfo id="25" depart="53.00" departLane="-661251539_0" departPos="5.10" departSpeed="0.00" departDelay="0.06" arrival="257.00" arrivalLane="153964138#0_1" arrivalPos="337.99" arrivalSpeed="13.52" duration="204.00" routeLength="1239.04" waitingTime="79.00" waitingCount="3" stopTime="0.00" timeLoss="104.48" rerouteNo="0" devices="tripinfo_25" vType="DEFAULT_VEHTYPE" speedFactor="0.86" vaporized=""/>
    <tripinfo id="56" depart="119.00" departLane="256961141#0_0" departPos="5.10" departSpeed="0.00" departDelay="0.41" arrival="258.00" arrivalLane="153964138#0_2" arrivalPos="337.99" arrivalSpeed="16.11" duration="139.00" routeLength="1439.25" waitingTime="25.00" waitingCount="1" stopTime="0.00" timeLoss="45.79" rerouteNo="0" devices="tripinfo_56" vType="DEFAULT_VEHTYPE" speedFactor="1.04" vaporized=""/>
    <tripinfo id="49" depart="105.00" departLane="E8_0" departPos="5.10" departSpeed="0.00" departDelay="1.24" arrival="259.00" arrivalLane="39907424_0" arrivalPos="316.44" arrivalSpeed="12.79" duration="154.00" routeLength="1303.68" waitingTime="44.00" waitingCount="1" stopTime="0.00" timeLoss="59.81" rerouteNo="0" devices="tripinfo_49" vType="DEFAULT_VEHTYPE" speedFactor="0.97" vaporized=""/>
    <tripinfo id="57" depart="121.00" departLane="E8_0" departPos="5.10" departSpeed="0.00" departDelay="0.29" arrival="260.00" arrivalLane="39907424_0" arrivalPos="316.44" arrivalSpeed="14.75" duration="139.00" routeLength="1303.68" waitingTime="36.00" waitingCount="1" stopTime="0.00" timeLoss="55.34" rerouteNo="0" devices="tripinfo_57" vType="DEFAULT_VEHTYPE" speedFactor="1.08" vaporized=""/>
    <tripinfo id="69" depart="147.00" departLane="666135205#0_0" departPos="5.10" departSpeed="0.00" departDelay="0.88" arrival="260.00" arrivalLane="153964138#0_1" arrivalPos="337.99" arrivalSpeed="15.37" duration="113.00" routeLength="924.87" waitingTime="31.00" waitingCount="1" stopTime="0.00" timeLoss="45.84" rerouteNo="0" devices="tripinfo_69" vType="DEFAULT_VEHTYPE" speedFactor="0.95" vaporized=""/>
    <tripinfo id="75" depart="159.00" departLane="E8_0" departPos="5.10" departSpeed="0.00" departDelay="0.18" arrival="267.00" arrivalLane="226276377#0_1" arrivalPos="135.52" arrivalSpeed="15.74" duration="108.00" routeLength="784.51" waitingTime="47.00" waitingCount="1" stopTime="0.00" timeLoss="60.38" rerouteNo="0" devices="tripinfo_75" vType="DEFAULT_VEHTYPE" speedFactor="1.20" vaporized=""/>
    <tripinfo id="85" depart="180.00" departLane="E8_0" departPos="5.10" departSpeed="0.00" departDelay="0.00" arrival="269.00" arrivalLane="226276377#0_1" arrivalPos="135.52" arrivalSpeed="15.03" duration="89.00" routeLength="784.51" waitingTime="26.00" waitingCount="1" stopTime="0.00" timeLoss="38.98" rerouteNo="0" devices="tripinfo_85" vType="DEFAULT_VEHTYPE" speedFactor="1.14" vaporized=""/>
    <tripinfo id="33" depart="70.00" departLane="-231177697#2_0" departPos="5.10" departSpeed="0.00" departDelay="0.12" arrival="274.00" arrivalLane="-256961141#1_1" arrivalPos="204.72" arrivalSpeed="12.19" duration="204.00" routeLength="1204.36" waitingTime="99.00" waitingCount="2" stopTime="0.00" timeLoss="118.45" rerouteNo="0" devices="tripinfo_33" vType="DEFAULT_VEHTYPE" speedFactor="0.95" vaporized=""/>
    <tripinfo id="44" depart="94.00" departLane="-218680176#1_0" departPos="5.10" departSpeed="0.00" departDelay="0.82" arrival="277.00" arrivalLane="-256961141#1_1" arrivalPos="204.72" arrivalSpeed="12.73" duration="183.00" routeLength="1207.38" waitingTime="77.00" waitingCount="2" stopTime="0.00" timeLoss="93.73" rerouteNo="0" devices="tripinfo_44" vType="DEFAULT_VEHTYPE" speedFactor="0.93" vaporized=""/>
    <tripinfo id="86" depart="183.00" departLane="256961141#0_0" departPos="5.10" departSpeed="0.00" departDelay="0.88" arrival="283.00" arrivalLane="39907424_0" arrivalPos="316.44" arrivalSpeed="12.82" duration="100.00" routeLength="873.95" waitingTime="26.00" waitingCount="1" stopTime="0.00" timeLoss="38.44" rerouteNo="0" devices="tripinfo_86" vType="DEFAULT_VEHTYPE" speedFactor="0.98" vaporized=""/>
    <tripinfo id="115" depart="244.00" departLane="-218680176#1_0" departPos="5.10" departSpeed="0.00" departDelay="0.47" arrival="284.00" arrivalLane="153964138#0_1" arrivalPos="337.99" arrivalSpeed="13.84" duration="40.00" routeLength="462.27" waitingTime="0.00" waitingCount="0" stopTime="0.00" timeLoss="4.83" rerouteNo="0" devices="tripinfo_115" vType="DEFAULT_VEHTYPE" speedFactor="0.87" vaporized=""/>
    <tripinfo id="10" depart="23.00" departLane="978867529_0" departPos="5.10" departSpeed="0.00" departDelay="1.82" arrival="288.00" arrivalLane="231177697#0_1" arrivalPos="74.44" arrivalSpeed="14.58" duration="265.00" routeLength="437.06" waitingTime="227.00" waitingCount="1" stopTime="0.00" timeLoss="238.62" rerouteNo="0" devices="tripinfo_10" vType="DEFAULT_VEHTYPE" speedFactor="1.10" vaporized=""/>
    <tripinfo id="103" depart="219.00" departLane="-661251539_0" departPos="5.10" departSpeed="0.00" departDelay="0.88" arrival="288.00" arrivalLane="-256961141#1_1" arrivalPos="204.72" arrivalSpeed="12.83" duration="69.00" routeLength="872.91" waitingTime="0.00" waitingCount="0" stopTime="0.00" timeLoss="8.79" rerouteNo="0" devices="tripinfo_103" vType="DEFAULT_VEHTYPE" speedFactor="1.01" vaporized=""/>
    <tripinfo id="7" depart="15.00" departLane="65746828#0_0" departPos="5.10" departSpeed="0.00" departDelay="0.18" arrival="290.00" arrivalLane="218680176#0_1" arrivalPos="98.94" arrivalSpeed="13.25" duration="275.00" routeLength="602.71" waitingTime="220.00" waitingCount="1" stopTime="0.00" timeLoss="232.10" rerouteNo="0" devices="tripinfo_7" vType="DEFAULT_VEHTYPE" speedFactor="1.04" vaporized=""/>
    <tripinfo id="15" depart="33.00" departLane="978867529_0" departPos="5.10" departSpeed="0.00" departDelay="1.24" arrival="290.00" arrivalLane="231177697#0_1" arrivalPos="74.44" arrivalSpeed="14.08" duration="257.00" routeLength="437.06" waitingTime="218.00" waitingCount="1" stopTime="0.00" timeLoss="229.98" rerouteNo="0" devices="tripinfo_15" vType="DEFAULT_VEHTYPE" speedFactor="1.07" vaporized=""/>
    <tripinfo id="5" depart="11.00" departLane="-226276377#1_0" departPos="5.10" departSpeed="0.00" departDelay="0.41" arrival="292.00" arrivalLane="218680176#0_1" arrivalPos="98.94" arrivalSpeed="13.44" duration="281.00" routeLength="1158.55" waitingTime="179.00" waitingCount="3" stopTime="0.00" timeLoss="204.31" rerouteNo="0" devices="tripinfo_5" vType="DEFAULT_VEHTYPE" speedFactor="1.05" vaporized=""/>
    <tripinfo id="32" depart="68.00" departLane="978867529_0" departPos="5.10" departSpeed="0.00" departDelay="0.24" arrival="292.00" arrivalLane="231177697#0_1" arrivalPos="74.44" arrivalSpeed="14.68" duration="224.00" routeLength="437.06" waitingTime="185.00" waitingCount="1" stopTime="0.00" timeLoss="197.34" rerouteNo="0" devices="tripinfo_32" vType="DEFAULT_VEHTYPE" speedFactor="1.09" vaporized=""/>
    <tripinfo id="78" depart="166.00" departLane="-661251539_0" departPos="5.10" departSpeed="0.00" departDelay="0.82" arrival="292.00" arrivalLane="226276377#0_0" arrivalPos="135.52" arrivalSpeed="13.62" duration="126.00" routeLength="783.10" waitingTime="54.00" waitingCount="2" stopTime="0.00" timeLoss="69.97" rerouteNo="0" devices="tripinfo_78" vType="DEFAULT_VEHTYPE" speedFactor="0.98" vaporized=""/>
    <tripinfo id="17" depart="36.00" departLane="-661251539_0" departPos="5.10" departSpeed="0.00" departDelay="0.00" arrival="293.00" arrivalLane="218680176#0_1" arrivalPos="98.94" arrivalSpeed="15.17" duration="257.00" routeLength="1001.21" waitingTime="167.00" waitingCount="2" stopTime="0.00" timeLoss="191.45" rerouteNo="0" devices="tripinfo_17" vType="DEFAULT_VEHTYPE" speedFactor="1.11" vaporized=""/>
    <tripinfo id="51" depart="108.00" departLane="666135205#0_0" departPos="5.10" departSpeed="0.00" departDelay="0.00" arrival="298.00" arrivalLane="218680176#0_1" arrivalPos="98.94" arrivalSpeed="10.91" duration="190.00" routeLength="693.09" waitingTime="114.00" waitingCount="2" stopTime="0.00" timeLoss="130.13" rerouteNo="0" devices="tripinfo_51" vType="DEFAULT_VEHTYPE" speedFactor="0.86" vaporized=""/>
    <tripinfo id="91" depart="193.00" departLane="E8_0" departPos="5.10" departSpeed="0.00" departDelay="0.29" arrival="298.00" arrivalLane="-256961141#1_0" arrivalPos="204.72" arrivalSpeed="12.71" duration="105.00" routeLength="832.89" waitingTime="28.00" waitingCount="1" stopTime="0.00" timeLoss="38.98" rerouteNo="0" devices="tripinfo_91" vType="DEFAULT_VEHTYPE" speedFactor="0.93" vaporized=""/>
    <tripinfo id="60" depart="128.00" departLane="666135205#0_0" departPos="5.10" departSpeed="0.00" departDelay="0.94" arrival="299.00" arrivalLane="218680176#0_1" arrivalPos="98.94" arrivalSpeed="13.73" duration="171.00" routeLength="693.09" waitingTime="98.00" waitingCount="2" stopTime="0.00" timeLoss="121.53" rerouteNo="0" devices="tripinfo_60" vType="DEFAULT_VEHTYPE" speedFactor="1.03" vaporized=""/>
    <tripinfo id="108" depart="229.00" departLane="65746828#0_0" departPos="5.10" departSpeed="0.00" departDelay="0.29" arrival="315.00" arrivalLane="231177697#0_0" arrivalPos="74.44" arrivalSpeed="13.08" duration="86.00" routeLength="558.79" waitingTime="30.00" waitingCount="1" stopTime="0.00" timeLoss="43.05" rerouteNo="0" devices="tripinfo_108" vType="DEFAULT_VEHTYPE" speedFactor="0.97" vaporized=""/>
    <tripinfo id="114" depart="242.00" departLane="-226276377#1_0" departPos="5.10" departSpeed="0.00" departDelay="0.59" arrival="315.00" arrivalLane="450554042#0_0" arrivalPos="622.66" arrivalSpeed="15.60" duration="73.00" routeLength="763.53" waitingTime="15.00" waitingCount="1" stopTime="0.00" timeLoss="25.06" rerouteNo="0" devices="tripinfo_114" vType="DEFAULT_VEHTYPE" speedFactor="1.01" vaporized=""/>
    <tripinfo id="110" depart="233.00" departLane="E8_0" departPos="5.10" departSpeed="0.00" departDelay="0.06" arrival="317.00" arrivalLane="226276377#0_1" arrivalPos="135.52" arrivalSpeed="14.42" duration="84.00" routeLength="784.51" waitingTime="22.00" waitingCount="1" stopTime="0.00" timeLoss="33.53" rerouteNo="0" devices="tripinfo_110" vType="DEFAULT_VEHTYPE" speedFactor="1.13" vaporized=""/>
    <tripinfo id="117" depart="248.00" departLane="-231177697#2_0" departPos="5.10" departSpeed="0.00" departDelay="0.24" arrival="325.00" arrivalLane="153964138#0_0" arrivalPos="337.99" arrivalSpeed="14.80" duration="77.00" routeLength="417.38" waitingTime="40.00" waitingCount="1" stopTime="0.00" timeLoss="48.20" rerouteNo="0" devices="tripinfo_117" vType="DEFAULT_VEHTYPE" speedFactor="0.94" vaporized=""/>
    <tripinfo id="41" depart="88.00" departLane="65746828#0_0" departPos="5.10" departSpeed="0.00" departDelay="1.18" arrival="328.00" arrivalLane="450554042#0_0" arrivalPos="622.66" arrivalSpeed="13.94" duration="240.00" routeLength="1340.72" waitingTime="124.00" waitingCount="2" stopTime="0.00" timeLoss="142.14" rerouteNo="0" devices="tripinfo_41" vType="DEFAULT_VEHTYPE" speedFactor="0.86" vaporized=""/>
    <tripinfo id="59" depart="125.00" departLane="65746828#0_0" departPos="5.10" departSpeed="0.00" departDelay="0.06" arrival="328.00" arrivalLane="153964138#0_0" arrivalPos="337.99" arrivalSpeed="17.37" duration="203.00" routeLength="834.49" waitingTime="133.00" waitingCount="2" stopTime="0.00" timeLoss="149.52" rerouteNo="0" devices="tripinfo_59" vType="DEFAULT_VEHTYPE" speedFactor="1.05" vaporized=""/>
    <tripinfo id="99" depart="210.00" departLane="E8_0" departPos="5.10" departSpeed="0.00" departDelay="0.35" arrival="331.00" arrivalLane="39907424_0" arrivalPos="316.44" arrivalSpeed="12.78" duration="121.00" routeLength="1303.68" waitingTime="15.00" waitingCount="1" stopTime="0.00" timeLoss="30.71" rerouteNo="0" devices="tripinfo_99" vType="DEFAULT_VEHTYPE" speedFactor="1.01" vaporized=""/>
    <tripinfo id="104" depart="222.00" departLane="-661251539_0" departPos="5.10" departSpeed="0.00" departDelay="1.76" arrival="332.00" arrivalLane="450554042#0_0" arrivalPos="622.66" arrivalSpeed="13.34" duration="110.00" routeLength="1282.13" waitingTime="0.00" waitingCount="0" stopTime="0.00" timeLoss="9.59" rerouteNo="0" devices="tripinfo_104" vType="DEFAULT_VEHTYPE" speedFactor="0.82" vaporized=""/>
    <tripinfo id="128" depart="272.00" departLane="-218680176#1_0" departPos="5.10" departSpeed="0.00" departDelay="0.94" arrival="354.00" arrivalLane="153964138#0_2" arrivalPos="337.99" arrivalSpeed="16.25" duration="82.00" routeLength="462.27" waitingTime="41.00" waitingCount="1" stopTime="0.00" timeLoss="52.57" rerouteNo="0" devices="tripinfo_128" vType="DEFAULT_VEHTYPE" speedFactor="1.03" vaporized=""/>
    <tripinfo id="141" depart="299.00" departLane="65746828#0_0" departPos="5.10" departSpeed="0.00" departDelay="0.41" arrival="354.00" arrivalLane="210831345#1_0" arrivalPos="264.29" arrivalSpeed="14.68" duration="55.00" routeLength="446.75" waitingTime="13.00" waitingCount="1" stopTime="0.00" timeLoss="24.08" rerouteNo="0" devices="tripinfo_141" vType="DEFAULT_VEHTYPE" speedFactor="1.06" vaporized=""/>
    <tripinfo id="146" depart="310.00" departLane="65746828#0_0" departPos="5.10" departSpeed="0.00" departDelay="0.82" arrival="355.00" arrivalLane="210831345#1_0" arrivalPos="264.29" arrivalSpeed="14.43" duration="45.00" routeLength="446.75" waitingTime="4.00" waitingCount="1" stopTime="0.00" timeLoss="16.38" rerouteNo="0" devices="tripinfo_146" vType="DEFAULT_VEHTYPE" speedFactor="1.13" vaporized=""/>
    <tripinfo id="145" depart="308.00" departLane="-218680176#1_0" departPos="5.10" departSpeed="0.00" departDelay="0.94" arrival="364.00" arrivalLane="231177697#0_0" arrivalPos="74.44" arrivalSpeed="13.31" duration="56.00" routeLength="205.97" waitingTime="31.00" waitingCount="1" stopTime="0.00" timeLoss="40.70" rerouteNo="0" devices="tripinfo_145" vType="DEFAULT_VEHTYPE" speedFactor="0.97" vaporized=""/>
    <tripinfo id="162" depart="344.00" departLane="-218680176#1_0" departPos="5.10" departSpeed="0.00" departDelay="0.94" arrival="369.00" arrivalLane="231177697#0_0" arrivalPos="74.44" arrivalSpeed="12.52" duration="25.00" routeLength="205.97" waitingTime="0.00" waitingCount="0" stopTime="0.00" timeLoss="8.17" rerouteNo="0" devices="tripinfo_162" vType="DEFAULT_VEHTYPE" speedFactor="0.92" vaporized=""/>
    <tripinfo id="113" depart="240.00" departLane="256961141#0_0" departPos="5.10" departSpeed="0.00" departDelay="0.71" arrival="381.00" arrivalLane="39907424_0" arrivalPos="316.44" arrivalSpeed="12.03" duration="141.00" routeLength="873.95" waitingTime="56.00" waitingCount="2" stopTime="0.00" timeLoss="72.72" rerouteNo="0" devices="tripinfo_113" vType="DEFAULT_VEHTYPE" speedFactor="0.89" vaporized=""/>
    <tripinfo id="132" depart="280.00" departLane="978867529_0" departPos="5.10" departSpeed="0.00" departDelay="0.47" arrival="389.00" arrivalLane="231177697#0_1" arrivalPos="74.44" arrivalSpeed="12.09" duration="109.00" routeLength="437.06" waitingTime="67.00" waitingCount="1" stopTime="0.00" timeLoss="77.35" rerouteNo="0" devices="tripinfo_132" vType="DEFAULT_VEHTYPE" speedFactor="0.89" vaporized=""/>
    <tripinfo id="147" depart="312.00" departLane="666135205#0_0" departPos="5.10" departSpeed="0.00" departDelay="0.71" arrival="390.00" arrivalLane="218680176#0_1" arrivalPos="98.94" arrivalSpeed="12.30" duration="78.00" routeLength="693.09" waitingTime="12.00" waitingCount="1" stopTime="0.00" timeLoss="24.91" rerouteNo="0" devices="tripinfo_147" vType="DEFAULT_VEHTYPE" speedFactor="0.96" vaporized=""/>