<?xml version="1.0" encoding="UTF-8"?>

<!-- generated on 2024-09-02 17:49:16 by Eclipse SUMO sumo Version 1.20.0
<configuration xmlns:xsi="http://www.w3.org/2001/XMLSchema-instance" xsi:noNamespaceSchemaLocation="http://sumo.dlr.de/xsd/sumoConfiguration.xsd">

    <input>
        <net-file value="c:\self\School\Master\Disertation\code\RESCO\resco_benchmark\environments/unirii/osm.net.xml.gz"/>
        <route-files value="c:\self\School\Master\Disertation\code\RESCO\resco_benchmark\environments/unirii/osm.passenger.trips.xml"/>
        <additional-files value="c:\self\School\Master\Disertation\code\RESCO\resco_benchmark\environments/unirii/osm.poly.xml.gz"/>
    </input>

    <output>
        <tripinfo-output value="C:\self\School\Master\Disertation\code\RESCO\results\IDQN-tr0-unirii-0-drq_norm-wait_norm\tripinfo_26.xml"/>
        <tripinfo-output.write-unfinished value="true"/>
    </output>

    <processing>
        <ignore-route-errors value="true"/>
        <time-to-teleport value="-1"/>
    </processing>

    <routing>
        <device.rerouting.adaptation-steps value="18"/>
        <device.rerouting.adaptation-interval value="10"/>
    </routing>

    <report>
        <verbose value="true"/>
        <no-warnings value="True"/>
        <duration-log.statistics value="true"/>
        <no-step-log value="True"/>
    </report>

    <traci_server>
        <remote-port value="51626"/>
    </traci_server>

    <random_number>
        <random value="true"/>
    </random_number>

    <gui_only>
        <gui-settings-file value="c:\self\School\Master\Disertation\code\RESCO\resco_benchmark\environments/unirii/osm.view.xml"/>
    </gui_only>

</configuration>
-->

<tripinfos xmlns:xsi="http://www.w3.org/2001/XMLSchema-instance" xsi:noNamespaceSchemaLocation="http://sumo.dlr.de/xsd/tripinfo_file.xsd">
    <tripinfo id="6" depart="13.00" departLane="-218680176#1_0" departPos="5.10" departSpeed="0.00" departDelay="0.29" arrival="52.00" arrivalLane="153964138#0_2" arrivalPos="337.99" arrivalSpeed="18.53" duration="39.00" routeLength="462.27" waitingTime="3.00" waitingCount="1" stopTime="0.00" timeLoss="12.07" rerouteNo="0" devices="tripinfo_6" vType="DEFAULT_VEHTYPE" speedFactor="1.14" vaporized=""/>
    <tripinfo id="10" depart="23.00" departLane="978867529_0" departPos="5.10" departSpeed="0.00" departDelay="1.82" arrival="63.00" arrivalLane="231177697#0_1" arrivalPos="74.44" arrivalSpeed="13.23" duration="40.00" routeLength="437.06" waitingTime="2.00" waitingCount="1" stopTime="0.00" timeLoss="10.09" rerouteNo="0" devices="tripinfo_10" vType="DEFAULT_VEHTYPE" speedFactor="0.96" vaporized=""/>
    <tripinfo id="15" depart="33.00" departLane="978867529_0" departPos="5.10" departSpeed="0.00" departDelay="1.24" arrival="65.00" arrivalLane="231177697#0_1" arrivalPos="74.44" arrivalSpeed="14.20" duration="32.00" routeLength="437.06" waitingTime="0.00" waitingCount="0" stopTime="0.00" timeLoss="5.15" rerouteNo="0" devices="tripinfo_15" vType="DEFAULT_VEHTYPE" speedFactor="1.06" vaporized=""/>
    <tripinfo id="3" depart="7.00" departLane="E8_0" departPos="5.10" departSpeed="0.00" departDelay="0.65" arrival="78.00" arrivalLane="-256961141#1_0" arrivalPos="204.72" arrivalSpeed="13.20" duration="71.00" routeLength="832.89" waitingTime="0.00" waitingCount="0" stopTime="0.00" timeLoss="7.01" rerouteNo="0" devices="tripinfo_3" vType="DEFAULT_VEHTYPE" speedFactor="0.96" vaporized=""/>
    <tripinfo id="50" depart="106.00" departLane="-218680176#1_0" departPos="5.10" departSpeed="0.00" departDelay="0.12" arrival="127.00" arrivalLane="231177697#0_0" arrivalPos="74.44" arrivalSpeed="11.83" duration="21.00" routeLength="205.97" waitingTime="0.00" waitingCount="0" stopTime="0.00" timeLoss="3.57" rerouteNo="0" devices="tripinfo_50" vType="DEFAULT_VEHTYPE" speedFactor="0.87" vaporized=""/>
    <tripinfo id="1" depart="3.00" departLane="-231177697#2_0" departPos="5.10" departSpeed="0.00" departDelay="0.88" arrival="128.00" arrivalLane="210831345#1_1" arrivalPos="264.29" arrivalSpeed="12.90" duration="125.00" routeLength="696.92" waitingTime="60.00" waitingCount="2" stopTime="0.00" timeLoss="74.27" rerouteNo="0" devices="tripinfo_1" vType="DEFAULT_VEHTYPE" speedFactor="1.01" vaporized=""/>
    <tripinfo id="22" depart="47.00" departLane="-218680176#1_0" departPos="5.10" departSpeed="0.00" departDelay="0.41" arrival="130.00" arrivalLane="210831345#1_1" arrivalPos="264.29" arrivalSpeed="14.59" duration="83.00" routeLength="699.94" waitingTime="15.00" waitingCount="2" stopTime="0.00" timeLoss="34.51" rerouteNo="0" devices="tripinfo_22" vType="DEFAULT_VEHTYPE" speedFactor="1.08" vaporized=""/>
    <tripinfo id="35" depart="75.00" departLane="-226276377#1_0" departPos="5.10" departSpeed="0.00" departDelay="0.88" arrival="130.00" arrivalLane="450554042#0_0" arrivalPos="622.66" arrivalSpeed="15.61" duration="55.00" routeLength="763.53" waitingTime="0.00" waitingCount="0" stopTime="0.00" timeLoss="6.69" rerouteNo="0" devices="tripinfo_35" vType="DEFAULT_VEHTYPE" speedFactor="1.00" vaporized=""/>
    <tripinfo id="23" depart="50.00" departLane="-218680176#1_0" departPos="5.10" departSpeed="0.00" departDelay="1.29" arrival="135.00" arrivalLane="210831345#1_0" arrivalPos="264.29" arrivalSpeed="11.18" duration="85.00" routeLength="699.94" waitingTime="13.00" waitingCount="1" stopTime="0.00" timeLoss="25.93" rerouteNo="0" devices="tripinfo_23" vType="DEFAULT_VEHTYPE" speedFactor="0.87" vaporized=""/>
    <tripinfo id="27" depart="58.00" departLane="65746828#0_0" departPos="5.10" departSpeed="0.00" departDelay="0.82" arrival="138.00" arrivalLane="226276377#0_0" arrivalPos="135.52" arrivalSpeed="10.85" duration="80.00" routeLength="841.69" waitingTime="0.00" waitingCount="0" stopTime="0.00" timeLoss="8.05" rerouteNo="0" devices="tripinfo_27" vType="DEFAULT_VEHTYPE" speedFactor="0.79" vaporized=""/>
    <tripinfo id="40" depart="85.00" departLane="65746828#0_0" departPos="5.10" departSpeed="0.00" departDelay="0.29" arrival="152.00" arrivalLane="210831345#1_0" arrivalPos="264.29" arrivalSpeed="10.95" duration="67.00" routeLength="446.75" waitingTime="18.00" waitingCount="1" stopTime="0.00" timeLoss="28.14" rerouteNo="0" devices="tripinfo_40" vType="DEFAULT_VEHTYPE" speedFactor="0.83" vaporized=""/>
    <tripinfo id="2" depart="5.00" departLane="666135205#0_0" departPos="5.10" departSpeed="0.00" departDelay="0.76" arrival="162.00" arrivalLane="231177697#0_0" arrivalPos="74.44" arrivalSpeed="12.53" duration="157.00" routeLength="649.17" waitingTime="88.00" waitingCount="2" stopTime="0.00" timeLoss="105.26" rerouteNo="0" devices="tripinfo_2" vType="DEFAULT_VEHTYPE" speedFactor="0.94" vaporized=""/>
    <tripinfo id="31" depart="66.00" departLane="65746828#0_0" departPos="5.10" departSpeed="0.00" departDelay="0.35" arrival="167.00" arrivalLane="231177697#0_0" arrivalPos="74.44" arrivalSpeed="13.36" duration="101.00" routeLength="558.79" waitingTime="46.00" waitingCount="1" stopTime="0.00" timeLoss="58.25" rerouteNo="0" devices="tripinfo_31" vType="DEFAULT_VEHTYPE" speedFactor="0.97" vaporized=""/>
    <tripinfo id="61" depart="130.00" departLane="978867529_0" departPos="5.10" departSpeed="0.00" departDelay="0.82" arrival="169.00" arrivalLane="218680176#0_0" arrivalPos="98.94" arrivalSpeed="12.09" duration="39.00" routeLength="442.15" waitingTime="0.00" waitingCount="0" stopTime="0.00" timeLoss="7.85" rerouteNo="0" devices="tripinfo_61" vType="DEFAULT_VEHTYPE" speedFactor="0.93" vaporized=""/>
    <tripinfo id="11" depart="24.00" departLane="-661251539_0" departPos="5.10" departSpeed="0.00" departDelay="0.71" arrival="177.00" arrivalLane="153964138#0_1" arrivalPos="337.99" arrivalSpeed="16.86" duration="153.00" routeLength="1239.04" waitingTime="55.00" waitingCount="2" stopTime="0.00" timeLoss="73.54" rerouteNo="0" devices="tripinfo_11" vType="DEFAULT_VEHTYPE" speedFactor="1.09" vaporized=""/>
    <tripinfo id="59" depart="125.00" departLane="65746828#0_0" departPos="5.10" departSpeed="0.00" departDelay="0.06" arrival="183.00" arrivalLane="153964138#0_1" arrivalPos="337.99" arrivalSpeed="17.40" duration="58.00" routeLength="834.49" waitingTime="0.00" waitingCount="0" stopTime="0.00" timeLoss="5.51" rerouteNo="0" devices="tripinfo_59" vType="DEFAULT_VEHTYPE" speedFactor="1.08" vaporized=""/>
    <tripinfo id="68" depart="144.00" departLane="-218680176#1_0" departPos="5.10" departSpeed="0.00" departDelay="0.00" arrival="193.00" arrivalLane="231177697#0_0" arrivalPos="74.44" arrivalSpeed="13.81" duration="49.00" routeLength="205.97" waitingTime="24.00" waitingCount="1" stopTime="0.00" timeLoss="34.56" rerouteNo="0" devices="tripinfo_68" vType="DEFAULT_VEHTYPE" speedFactor="1.08" vaporized=""/>
    <tripinfo id="12" depart="26.00" departLane="E8_0" departPos="5.10" departSpeed="0.00" departDelay="0.59" arrival="196.00" arrivalLane="210831347#0_1" arrivalPos="149.88" arrivalSpeed="10.96" duration="170.00" routeLength="1367.17" waitingTime="45.00" waitingCount="2" stopTime="0.00" timeLoss="61.91" rerouteNo="0" devices="tripinfo_12" vType="DEFAULT_VEHTYPE" speedFactor="0.88" vaporized=""/>
    <tripinfo id="54" depart="115.00" departLane="256961141#0_0" departPos="5.10" departSpeed="0.00" departDelay="0.65" arrival="200.00" arrivalLane="450554042#0_1" arrivalPos="622.66" arrivalSpeed="15.55" duration="85.00" routeLength="853.74" waitingTime="18.00" waitingCount="1" stopTime="0.00" timeLoss="29.20" rerouteNo="0" devices="tripinfo_54" vType="DEFAULT_VEHTYPE" speedFactor="0.98" vaporized=""/>
    <tripinfo id="16" depart="34.00" departLane="256961141#0_0" departPos="5.10" departSpeed="0.00" departDelay="0.12" arrival="201.00" arrivalLane="450554042#0_0" arrivalPos="622.66" arrivalSpeed="13.79" duration="167.00" routeLength="853.74" waitingTime="97.00" waitingCount="1" stopTime="0.00" timeLoss="106.03" rerouteNo="0" devices="tripinfo_16" vType="DEFAULT_VEHTYPE" speedFactor="0.90" vaporized=""/>
    <tripinfo id="79" depart="168.00" departLane="-231177697#2_0" departPos="5.10" departSpeed="0.00" departDelay="0.71" arrival="203.00" arrivalLane="153964138#0_0" arrivalPos="337.99" arrivalSpeed="16.76" duration="35.00" routeLength="417.38" waitingTime="0.00" waitingCount="0" stopTime="0.00" timeLoss="7.83" rerouteNo="0" devices="tripinfo_79" vType="DEFAULT_VEHTYPE" speedFactor="1.03" vaporized=""/>
    <tripinfo id="21" depart="45.00" departLane="-231177697#2_0" departPos="5.10" departSpeed="0.00" departDelay="0.53" arrival="205.00" arrivalLane="210831345#1_0" arrivalPos="264.29" arrivalSpeed="12.58" duration="160.00" routeLength="696.92" waitingTime="90.00" waitingCount="2" stopTime="0.00" timeLoss="104.59" rerouteNo="0" devices="tripinfo_21" vType="DEFAULT_VEHTYPE" speedFactor="0.93" vaporized=""/>
    <tripinfo id="34" depart="72.00" departLane="-231177697#2_0" departPos="5.10" departSpeed="0.00" departDelay="0.00" arrival="207.00" arrivalLane="210831345#1_0" arrivalPos="264.29" arrivalSpeed="12.68" duration="135.00" routeLength="696.92" waitingTime="62.00" waitingCount="2" stopTime="0.00" timeLoss="79.47" rerouteNo="0" devices="tripinfo_34" vType="DEFAULT_VEHTYPE" speedFactor="0.92" vaporized=""/>
    <tripinfo id="39" depart="83.00" departLane="-231177697#2_0" departPos="5.10" departSpeed="0.00" departDelay="0.41" arrival="209.00" arrivalLane="210831345#1_1" arrivalPos="264.29" arrivalSpeed="12.38" duration="126.00" routeLength="696.92" waitingTime="51.00" waitingCount="2" stopTime="0.00" timeLoss="71.84" rerouteNo="0" devices="tripinfo_39" vType="DEFAULT_VEHTYPE" speedFactor="0.95" vaporized=""/>
    <tripinfo id="29" depart="63.00" departLane="-226276377#1_0" departPos="5.10" departSpeed="0.00" departDelay="1.59" arrival="210.00" arrivalLane="210831347#0_1" arrivalPos="149.88" arrivalSpeed="14.22" duration="147.00" routeLength="888.52" waitingTime="77.00" waitingCount="1" stopTime="0.00" timeLoss="90.05" rerouteNo="0" devices="tripinfo_29" vType="DEFAULT_VEHTYPE" speedFactor="1.08" vaporized=""/>
    <tripinfo id="36" depart="77.00" departLane="978867529_0" departPos="5.10" departSpeed="0.00" departDelay="0.76" arrival="211.00" arrivalLane="210831345#1_1" arrivalPos="264.29" arrivalSpeed="13.94" duration="134.00" routeLength="951.92" waitingTime="50.00" waitingCount="1" stopTime="0.00" timeLoss="70.07" rerouteNo="0" devices="tripinfo_36" vType="DEFAULT_VEHTYPE" speedFactor="1.03" vaporized=""/>
    <tripinfo id="55" depart="117.00" departLane="978867529_0" departPos="5.10" departSpeed="0.00" departDelay="0.53" arrival="211.00" arrivalLane="210831345#1_0" arrivalPos="264.29" arrivalSpeed="14.62" duration="94.00" routeLength="951.92" waitingTime="12.00" waitingCount="1" stopTime="0.00" timeLoss="36.17" rerouteNo="0" devices="tripinfo_55" vType="DEFAULT_VEHTYPE" speedFactor="1.14" vaporized=""/>
    <tripinfo id="32" depart="68.00" departLane="978867529_0" departPos="5.10" departSpeed="0.00" departDelay="0.24" arrival="213.00" arrivalLane="231177697#0_1" arrivalPos="74.44" arrivalSpeed="14.88" duration="145.00" routeLength="437.06" waitingTime="108.00" waitingCount="1" stopTime="0.00" timeLoss="118.71" rerouteNo="0" devices="tripinfo_32" vType="DEFAULT_VEHTYPE" speedFactor="1.09" vaporized=""/>
    <tripinfo id="17" depart="36.00" departLane="-661251539_0" departPos="5.10" departSpeed="0.00" departDelay="0.00" arrival="219.00" arrivalLane="218680176#0_1" arrivalPos="98.94" arrivalSpeed="9.33" duration="183.00" routeLength="1001.21" waitingTime="66.00" waitingCount="1" stopTime="0.00" timeLoss="78.14" rerouteNo="0" devices="tripinfo_17" vType="DEFAULT_VEHTYPE" speedFactor="0.70" vaporized=""/>
    <tripinfo id="30" depart="64.00" departLane="E8_0" departPos="5.10" departSpeed="0.00" departDelay="0.47" arrival="219.00" arrivalLane="226276377#0_1" arrivalPos="135.52" arrivalSpeed="12.56" duration="155.00" routeLength="784.51" waitingTime="83.00" waitingCount="1" stopTime="0.00" timeLoss="93.84" rerouteNo="0" devices="tripinfo_30" vType="DEFAULT_VEHTYPE" speedFactor="0.93" vaporized=""/>
    <tripinfo id="7" depart="15.00" departLane="65746828#0_0" departPos="5.10" departSpeed="0.00" departDelay="0.18" arrival="220.00" arrivalLane="218680176#0_1" arrivalPos="98.94" arrivalSpeed="12.26" duration="205.00" routeLength="602.71" waitingTime="141.00" waitingCount="2" stopTime="0.00" timeLoss="157.09" rerouteNo="0" devices="tripinfo_7" vType="DEFAULT_VEHTYPE" speedFactor="0.92" vaporized=""/>
    <tripinfo id="75" depart="159.00" departLane="E8_0" departPos="5.10" departSpeed="0.00" departDelay="0.18" arrival="221.00" arrivalLane="226276377#0_1" arrivalPos="135.52" arrivalSpeed="14.47" duration="62.00" routeLength="784.51" waitingTime="0.00" waitingCount="0" stopTime="0.00" timeLoss="7.27" rerouteNo="0" devices="tripinfo_75" vType="DEFAULT_VEHTYPE" speedFactor="1.06" vaporized=""/>
    <tripinfo id="4" depart="9.00" departLane="-661251539_0" departPos="5.10" departSpeed="0.00" departDelay="0.53" arrival="223.00" arrivalLane="-256961141#1_1" arrivalPos="204.72" arrivalSpeed="12.47" duration="214.00" routeLength="872.91" waitingTime="141.00" waitingCount="1" stopTime="0.00" timeLoss="151.80" rerouteNo="0" devices="tripinfo_4" vType="DEFAULT_VEHTYPE" speedFactor="0.97" vaporized=""/>
    <tripinfo id="0" depart="0.00" departLane="65746828#0_0" departPos="5.10" departSpeed="0.00" departDelay="0.00" arrival="225.00" arrivalLane="-256961141#1_1" arrivalPos="204.72" arrivalSpeed="13.06" duration="225.00" routeLength="931.50" waitingTime="146.00" waitingCount="2" stopTime="0.00" timeLoss="163.32" rerouteNo="0" devices="tripinfo_0" vType="DEFAULT_VEHTYPE" speedFactor="1.01" vaporized=""/>
    <tripinfo id="13" depart="28.00" departLane="-218680176#1_0" departPos="5.10" departSpeed="0.00" departDelay="0.47" arrival="227.00" arrivalLane="-256961141#1_1" arrivalPos="204.72" arrivalSpeed="13.94" duration="199.00" routeLength="1207.38" waitingTime="101.00" waitingCount="2" stopTime="0.00" timeLoss="118.83" rerouteNo="0" devices="tripinfo_13" vType="DEFAULT_VEHTYPE" speedFactor="1.03" vaporized=""/>
    <tripinfo id="20" depart="43.00" departLane="666135205#0_0" departPos="5.10" departSpeed="0.00" departDelay="0.65" arrival="229.00" arrivalLane="-256961141#1_1" arrivalPos="204.72" arrivalSpeed="13.06" duration="186.00" routeLength="1068.72" waitingTime="96.00" waitingCount="2" stopTime="0.00" timeLoss="112.17" rerouteNo="0" devices="tripinfo_20" vType="DEFAULT_VEHTYPE" speedFactor="0.97" vaporized=""/>
    <tripinfo id="47" depart="100.00" departLane="-218680176#1_0" departPos="5.10" departSpeed="0.00" departDelay="0.47" arrival="244.00" arrivalLane="210831347#0_0" arrivalPos="149.88" arrivalSpeed="13.30" duration="144.00" routeLength="560.58" waitingTime="88.00" waitingCount="1" stopTime="0.00" timeLoss="100.06" rerouteNo="0" devices="tripinfo_47" vType="DEFAULT_VEHTYPE" speedFactor="0.96" vaporized=""/>
    <tripinfo id="90" depart="191.00" departLane="666135205#0_0" departPos="5.10" departSpeed="0.00" departDelay="0.41" arrival="245.00" arrivalLane="231177697#0_0" arrivalPos="74.44" arrivalSpeed="14.47" duration="54.00" routeLength="649.17" waitingTime="0.00" waitingCount="0" stopTime="0.00" timeLoss="8.40" rerouteNo="0" devices="tripinfo_90" vType="DEFAULT_VEHTYPE" speedFactor="1.05" vaporized=""/>
    <tripinfo id="46" depart="98.00" departLane="978867529_0" departPos="5.10" departSpeed="0.00" departDelay="0.59" arrival="248.00" arrivalLane="210831347#0_0" arrivalPos="149.88" arrivalSpeed="12.59" duration="150.00" routeLength="812.56" waitingTime="67.00" waitingCount="3" stopTime="0.00" timeLoss="90.82" rerouteNo="0" devices="tripinfo_46" vType="DEFAULT_VEHTYPE" speedFactor="0.94" vaporized=""/>
    <tripinfo id="86" depart="183.00" departLane="256961141#0_0" departPos="5.10" departSpeed="0.00" departDelay="0.88" arrival="249.00" arrivalLane="39907424_0" arrivalPos="316.44" arrivalSpeed="14.15" duration="66.00" routeLength="873.95" waitingTime="0.00" waitingCount="0" stopTime="0.00" timeLoss="9.94" rerouteNo="0" devices="tripinfo_86" vType="DEFAULT_VEHTYPE" speedFactor="1.09" vaporized=""/>
    <tripinfo id="69" depart="147.00" departLane="666135205#0_0" departPos="5.10" departSpeed="0.00" departDelay="0.88" arrival="254.00" arrivalLane="153964138#0_0" arrivalPos="337.99" arrivalSpeed="14.76" duration="107.00" routeLength="924.87" waitingTime="28.00" waitingCount="1" stopTime="0.00" timeLoss="40.26" rerouteNo="0" devices="tripinfo_69" vType="DEFAULT_VEHTYPE" speedFactor="0.95" vaporized=""/>
    <tripinfo id="88" depart="187.00" departLane="-218680176#1_0" departPos="5.10" departSpeed="0.00" departDelay="0.65" arrival="254.00" arrivalLane="210831347#0_0" arrivalPos="149.88" arrivalSpeed="14.11" duration="67.00" routeLength="560.58" waitingTime="12.00" waitingCount="1" stopTime="0.00" timeLoss="26.84" rerouteNo="0" devices="tripinfo_88" vType="DEFAULT_VEHTYPE" speedFactor="1.04" vaporized=""/>
    <tripinfo id="91" depart="193.00" departLane="E8_0" departPos="5.10" departSpeed="0.00" departDelay="0.29" arrival="260.00" arrivalLane="-256961141#1_0" arrivalPos="204.72" arrivalSpeed="13.34" duration="67.00" routeLength="832.89" waitingTime="0.00" waitingCount="0" stopTime="0.00" timeLoss="8.28" rerouteNo="0" devices="tripinfo_91" vType="DEFAULT_VEHTYPE" speedFactor="1.05" vaporized=""/>
    <tripinfo id="74" depart="157.00" departLane="-226276377#1_0" departPos="5.10" departSpeed="0.00" departDelay="0.29" arrival="261.00" arrivalLane="210831345#1_0" arrivalPos="264.29" arrivalSpeed="10.42" duration="104.00" routeLength="977.93" waitingTime="8.00" waitingCount="1" stopTime="0.00" timeLoss="22.05" rerouteNo="0" devices="tripinfo_74" vType="DEFAULT_VEHTYPE" speedFactor="0.83" vaporized=""/>
    <tripinfo id="51" depart="108.00" departLane="666135205#0_0" departPos="5.10" departSpeed="0.00" departDelay="0.00" arrival="266.00" arrivalLane="218680176#0_1" arrivalPos="98.94" arrivalSpeed="11.73" duration="158.00" routeLength="693.09" waitingTime="84.00" waitingCount="2" stopTime="0.00" timeLoss="100.14" rerouteNo="0" devices="tripinfo_51" vType="DEFAULT_VEHTYPE" speedFactor="0.89" vaporized=""/>
    <tripinfo id="53" depart="113.00" departLane="-226276377#1_0" departPos="5.10" departSpeed="0.00" departDelay="0.76" arrival="269.00" arrivalLane="210831347#0_1" arrivalPos="149.88" arrivalSpeed="14.17" duration="156.00" routeLength="888.52" waitingTime="79.00" waitingCount="2" stopTime="0.00" timeLoss="97.47" rerouteNo="0" devices="tripinfo_53" vType="DEFAULT_VEHTYPE" speedFactor="1.05" vaporized=""/>
    <tripinfo id="60" depart="128.00" departLane="666135205#0_0" departPos="5.10" departSpeed="0.00" departDelay="0.94" arrival="269.00" arrivalLane="218680176#0_1" arrivalPos="98.94" arrivalSpeed="10.70" duration="141.00" routeLength="693.09" waitingTime="63.00" waitingCount="2" stopTime="0.00" timeLoss="80.26" rerouteNo="0" devices="tripinfo_60" vType="DEFAULT_VEHTYPE" speedFactor="0.85" vaporized=""/>
    <tripinfo id="38" depart="81.00" departLane="E8_0" departPos="5.10" departSpeed="0.00" departDelay="0.53" arrival="270.00" arrivalLane="218680176#0_1" arrivalPos="98.94" arrivalSpeed="12.62" duration="189.00" routeLength="1637.20" waitingTime="55.00" waitingCount="1" stopTime="0.00" timeLoss="74.48" rerouteNo="0" devices="tripinfo_38" vType="DEFAULT_VEHTYPE" speedFactor="1.00" vaporized=""/>
    <tripinfo id="48" depart="102.00" departLane="E8_0" departPos="5.10" departSpeed="0.00" departDelay="0.35" arrival="272.00" arrivalLane="218680176#0_1" arrivalPos="98.94" arrivalSpeed="15.46" duration="170.00" routeLength="1637.20" waitingTime="38.00" waitingCount="1" stopTime="0.00" timeLoss="70.48" rerouteNo="0" devices="tripinfo_48" vType="DEFAULT_VEHTYPE" speedFactor="1.16" vaporized=""/>
    <tripinfo id="92" depart="195.00" departLane="-661251539_0" departPos="5.10" departSpeed="0.00" departDelay="0.18" arrival="272.00" arrivalLane="210831347#0_1" arrivalPos="149.88" arrivalSpeed="12.07" duration="77.00" routeLength="731.18" waitingTime="4.00" waitingCount="1" stopTime="0.00" timeLoss="18.24" rerouteNo="0" devices="tripinfo_92" vType="DEFAULT_VEHTYPE" speedFactor="0.91" vaporized=""/>
    <tripinfo id="43" depart="92.00" departLane="E8_0" departPos="5.10" departSpeed="0.00" departDelay="0.94" arrival="274.00" arrivalLane="218680176#0_1" arrivalPos="98.94" arrivalSpeed="12.27" duration="182.00" routeLength="1637.20" waitingTime="40.00" waitingCount="1" stopTime="0.00" timeLoss="62.85" rerouteNo="0" devices="tripinfo_43" vType="DEFAULT_VEHTYPE" speedFactor="0.96" vaporized=""/>
    <tripinfo id="64" depart="136.00" departLane="978867529_0" departPos="5.10" departSpeed="0.00" departDelay="0.47" arrival="275.00" arrivalLane="39907424_0" arrivalPos="316.44" arrivalSpeed="15.79" duration="139.00" routeLength="1216.15" waitingTime="44.00" waitingCount="1" stopTime="0.00" timeLoss="68.38" rerouteNo="0" devices="tripinfo_64" vType="DEFAULT_VEHTYPE" speedFactor="1.17" vaporized=""/>
    <tripinfo id="5" depart="11.00" departLane="-226276377#1_0" departPos="5.10" departSpeed="0.00" departDelay="0.41" arrival="276.00" arrivalLane="218680176#0_1" arrivalPos="98.94" arrivalSpeed="15.74" duration="265.00" routeLength="1158.55" waitingTime="166.00" waitingCount="2" stopTime="0.00" timeLoss="196.55" rerouteNo="0" devices="tripinfo_5" vType="DEFAULT_VEHTYPE" speedFactor="1.19" vaporized=""/>
    <tripinfo id="70" depart="149.00" departLane="256961141#0_0" departPos="5.10" departSpeed="0.00" departDelay="0.76" arrival="278.00" arrivalLane="218680176#0_1" arrivalPos="98.94" arrivalSpeed="11.50" duration="129.00" routeLength="1207.47" waitingTime="13.00" waitingCount="2" stopTime="0.00" timeLoss="37.26" rerouteNo="0" devices="tripinfo_70" vType="DEFAULT_VEHTYPE" speedFactor="0.92" vaporized=""/>
    <tripinfo id="62" depart="132.00" departLane="-218680176#1_0" departPos="5.10" departSpeed="0.00" departDelay="0.71" arrival="279.00" arrivalLane="210831345#1_1" arrivalPos="264.29" arrivalSpeed="12.13" duration="147.00" routeLength="699.94" waitingTime="77.00" waitingCount="2" stopTime="0.00" timeLoss="92.27" rerouteNo="0" devices="tripinfo_62" vType="DEFAULT_VEHTYPE" speedFactor="0.94" vaporized=""/>
    <tripinfo id="76" depart="161.00" departLane="-661251539_0" departPos="5.10" departSpeed="0.00" departDelay="0.06" arrival="280.00" arrivalLane="218680176#0_1" arrivalPos="98.94" arrivalSpeed="16.03" duration="119.00" routeLength="1001.21" waitingTime="35.00" waitingCount="2" stopTime="0.00" timeLoss="56.06" rerouteNo="0" devices="tripinfo_76" vType="DEFAULT_VEHTYPE" speedFactor="1.18" vaporized=""/>
    <tripinfo id="41" depart="88.00" departLane="65746828#0_0" departPos="5.10" departSpeed="0.00" departDelay="1.18" arrival="284.00" arrivalLane="450554042#0_0" arrivalPos="622.66" arrivalSpeed="15.01" duration="196.00" routeLength="1340.72" waitingTime="88.00" waitingCount="2" stopTime="0.00" timeLoss="104.34" rerouteNo="0" devices="tripinfo_41" vType="DEFAULT_VEHTYPE" speedFactor="0.91" vaporized=""/>
    <tripinfo id="49" depart="105.00" departLane="E8_0" departPos="5.10" departSpeed="0.00" departDelay="1.24" arrival="290.00" arrivalLane="39907424_0" arrivalPos="316.44" arrivalSpeed="13.29" duration="185.00" routeLength="1303.68" waitingTime="80.00" waitingCount="2" stopTime="0.00" timeLoss="97.96" rerouteNo="0" devices="tripinfo_49" vType="DEFAULT_VEHTYPE" speedFactor="1.04" vaporized=""/>
    <tripinfo id="57" depart="121.00" departLane="E8_0" departPos="5.10" departSpeed="0.00" departDelay="0.29" arrival="292.00" arrivalLane="39907424_0" arrivalPos="316.44" arrivalSpeed="14.67" duration="171.00" routeLength="1303.68" waitingTime="64.00" waitingCount="2" stopTime="0.00" timeLoss="87.31" rerouteNo="0" devices="tripinfo_57" vType="DEFAULT_VEHTYPE" speedFactor="1.09" vaporized=""/>
    <tripinfo id="28" depart="60.00" departLane="-226276377#1_0" departPos="5.10" departSpeed="0.00" departDelay="0.71" arrival="293.00" arrivalLane="231177697#0_0" arrivalPos="74.44" arrivalSpeed="14.20" duration="233.00" routeLength="1114.63" waitingTime="126.00" waitingCount="3" stopTime="0.00" timeLoss="156.55" rerouteNo="0" devices="tripinfo_28" vType="DEFAULT_VEHTYPE" speedFactor="1.03" vaporized=""/>
    <tripinfo id="93" depart="197.00" departLane="978867529_0" departPos="5.10" departSpeed="0.00" departDelay="0.06" arrival="293.00" arrivalLane="210831345#1_0" arrivalPos="264.29" arrivalSpeed="10.41" duration="96.00" routeLength="951.92" waitingTime="0.00" waitingCount="0" stopTime="0.00" timeLoss="8.33" rerouteNo="0" devices="tripinfo_93" vType="DEFAULT_VEHTYPE" speedFactor="0.75" vaporized=""/>
    <tripinfo id="73" depart="155.00" departLane="256961141#0_0" departPos="5.10" departSpeed="0.00" departDelay="0.41" arrival="294.00" arrivalLane="231177697#0_0" arrivalPos="74.44" arrivalSpeed="15.39" duration="139.00" routeLength="1163.55" waitingTime="29.00" waitingCount="3" stopTime="0.00" timeLoss="67.43" rerouteNo="0" devices="tripinfo_73" vType="DEFAULT_VEHTYPE" speedFactor="1.14" vaporized=""/>
    <tripinfo id="117" depart="248.00" departLane="-231177697#2_0" departPos="5.10" departSpeed="0.00" departDelay="0.24" arrival="295.00" arrivalLane="153964138#0_0" arrivalPos="337.99" arrivalSpeed="18.50" duration="47.00" routeLength="417.38" waitingTime="14.00" waitingCount="1" stopTime="0.00" timeLoss="23.99" rerouteNo="0" devices="tripinfo_117" vType="DEFAULT_VEHTYPE" speedFactor="1.15" vaporized=""/>
    <tripinfo id="95" depart="202.00" departLane="-661251539_0" departPos="5.10" departSpeed="0.00" departDelay="0.82" arrival="300.00" arrivalLane="210831345#1_0" arrivalPos="264.29" arrivalSpeed="14.16" duration="98.00" routeLength="826.64" waitingTime="21.00" waitingCount="1" stopTime="0.00" timeLoss="40.31" rerouteNo="0" devices="tripinfo_95" vType="DEFAULT_VEHTYPE" speedFactor="1.06" vaporized=""/>
    <tripinfo id="72" depart="153.00" departLane="-661251539_0" departPos="5.10" departSpeed="0.00" departDelay="0.53" arrival="302.00" arrivalLane="153964138#0_2" arrivalPos="337.99" arrivalSpeed="17.63" duration="149.00" routeLength="1239.04" waitingTime="42.00" waitingCount="3" stopTime="0.00" timeLoss="71.80" rerouteNo="0" devices="tripinfo_72" vType="DEFAULT_VEHTYPE" speedFactor="1.11" vaporized=""/>
    <tripinfo id="42" depart="89.00" departLane="-661251539_0" departPos="5.10" departSpeed="0.00" departDelay="0.06" arrival="303.00" arrivalLane="153964138#0_0" arrivalPos="337.99" arrivalSpeed="17.76" duration="214.00" routeLength="1239.04" waitingTime="113.00" waitingCount="2" stopTime="0.00" timeLoss="134.13" rerouteNo="0" devices="tripinfo_42" vType="DEFAULT_VEHTYPE" speedFactor="1.08" vaporized=""/>
    <tripinfo id="56" depart="119.00" departLane="256961141#0_0" departPos="5.10" departSpeed="0.00" departDelay="0.41" arrival="303.00" arrivalLane="153964138#0_1" arrivalPos="337.99" arrivalSpeed="17.38" duration="184.00" routeLength="1439.25" waitingTime="67.00" waitingCount="3" stopTime="0.00" timeLoss="93.10" rerouteNo="0" devices="tripinfo_56" vType="DEFAULT_VEHTYPE" speedFactor="1.06" vaporized=""/>
    <tripinfo id="25" depart="53.00" departLane="-661251539_0" departPos="5.10" departSpeed="0.00" departDelay="0.06" arrival="308.00" arrivalLane="153964138#0_0" arrivalPos="337.99" arrivalSpeed="13.96" duration="255.00" routeLength="1239.04" waitingTime="141.00" waitingCount="2" stopTime="0.00" timeLoss="159.61" rerouteNo="0" devices="tripinfo_25" vType="DEFAULT_VEHTYPE" speedFactor="0.90" vaporized=""/>
    <tripinfo id="85" depart="180.00" departLane="E8_0" departPos="5.10" departSpeed="0.00" departDelay="0.00" arrival="318.00" arrivalLane="226276377#0_1" arrivalPos="135.52" arrivalSpeed="13.63" duration="138.00" routeLength="784.51" waitingTime="70.00" waitingCount="1" stopTime="0.00" timeLoss="79.66" rerouteNo="0" devices="tripinfo_85" vType="DEFAULT_VEHTYPE" speedFactor="0.98" vaporized=""/>