<?xml version="1.0" encoding="UTF-8"?>

<!-- generated on 2024-09-02 17:50:58 by Eclipse SUMO sumo Version 1.20.0
<configuration xmlns:xsi="http://www.w3.org/2001/XMLSchema-instance" xsi:noNamespaceSchemaLocation="http://sumo.dlr.de/xsd/sumoConfiguration.xsd">

    <input>
        <net-file value="c:\self\School\Master\Disertation\code\RESCO\resco_benchmark\environments/unirii/osm.net.xml.gz"/>
        <route-files value="c:\self\School\Master\Disertation\code\RESCO\resco_benchmark\environments/unirii/osm.passenger.trips.xml"/>
        <additional-files value="c:\self\School\Master\Disertation\code\RESCO\resco_benchmark\environments/unirii/osm.poly.xml.gz"/>
    </input>

    <output>
        <tripinfo-output value="C:\self\School\Master\Disertation\code\RESCO\results\IDQN-tr0-unirii-0-drq_norm-wait_norm\tripinfo_38.xml"/>
        <tripinfo-output.write-unfinished value="true"/>
    </output>

    <processing>
        <ignore-route-errors value="true"/>
        <time-to-teleport value="-1"/>
    </processing>

    <routing>
        <device.rerouting.adaptation-steps value="18"/>
        <device.rerouting.adaptation-interval value="10"/>
    </routing>

    <report>
        <verbose value="true"/>
        <no-warnings value="True"/>
        <duration-log.statistics value="true"/>
        <no-step-log value="True"/>
    </report>

    <traci_server>
        <remote-port value="51696"/>
    </traci_server>

    <random_number>
        <random value="true"/>
    </random_number>

    <gui_only>
        <gui-settings-file value="c:\self\School\Master\Disertation\code\RESCO\resco_benchmark\environments/unirii/osm.view.xml"/>
    </gui_only>

</configuration>
-->

<tripinfos xmlns:xsi="http://www.w3.org/2001/XMLSchema-instance" xsi:noNamespaceSchemaLocation="http://sumo.dlr.de/xsd/tripinfo_file.xsd">
    <tripinfo id="6" depart="13.00" departLane="-218680176#1_0" departPos="5.10" departSpeed="0.00" departDelay="0.29" arrival="58.00" arrivalLane="153964138#0_1" arrivalPos="337.99" arrivalSpeed="13.21" duration="45.00" routeLength="462.27" waitingTime="0.00" waitingCount="0" stopTime="0.00" timeLoss="10.36" rerouteNo="0" devices="tripinfo_6" vType="DEFAULT_VEHTYPE" speedFactor="0.86" vaporized=""/>
    <tripinfo id="10" depart="23.00" departLane="978867529_0" departPos="5.10" departSpeed="0.00" departDelay="1.82" arrival="63.00" arrivalLane="231177697#0_1" arrivalPos="74.44" arrivalSpeed="11.48" duration="40.00" routeLength="437.06" waitingTime="0.00" waitingCount="0" stopTime="0.00" timeLoss="8.17" rerouteNo="0" devices="tripinfo_10" vType="DEFAULT_VEHTYPE" speedFactor="0.91" vaporized=""/>
    <tripinfo id="15" depart="33.00" departLane="978867529_0" departPos="5.10" departSpeed="0.00" departDelay="1.24" arrival="67.00" arrivalLane="231177697#0_1" arrivalPos="74.44" arrivalSpeed="13.61" duration="34.00" routeLength="437.06" waitingTime="0.00" waitingCount="0" stopTime="0.00" timeLoss="5.71" rerouteNo="0" devices="tripinfo_15" vType="DEFAULT_VEHTYPE" speedFactor="1.01" vaporized=""/>
    <tripinfo id="4" depart="9.00" departLane="-661251539_0" departPos="5.10" departSpeed="0.00" departDelay="0.53" arrival="75.00" arrivalLane="-256961141#1_1" arrivalPos="204.72" arrivalSpeed="14.78" duration="66.00" routeLength="872.91" waitingTime="0.00" waitingCount="0" stopTime="0.00" timeLoss="9.85" rerouteNo="0" devices="tripinfo_4" vType="DEFAULT_VEHTYPE" speedFactor="1.09" vaporized=""/>
    <tripinfo id="2" depart="5.00" departLane="666135205#0_0" departPos="5.10" departSpeed="0.00" departDelay="0.76" arrival="112.00" arrivalLane="231177697#0_0" arrivalPos="74.44" arrivalSpeed="13.17" duration="107.00" routeLength="649.17" waitingTime="42.00" waitingCount="2" stopTime="0.00" timeLoss="59.91" rerouteNo="0" devices="tripinfo_2" vType="DEFAULT_VEHTYPE" speedFactor="1.03" vaporized=""/>
    <tripinfo id="31" depart="66.00" departLane="65746828#0_0" departPos="5.10" departSpeed="0.00" departDelay="0.35" arrival="117.00" arrivalLane="231177697#0_0" arrivalPos="74.44" arrivalSpeed="13.55" duration="51.00" routeLength="558.79" waitingTime="0.00" waitingCount="0" stopTime="0.00" timeLoss="8.72" rerouteNo="0" devices="tripinfo_31" vType="DEFAULT_VEHTYPE" speedFactor="0.99" vaporized=""/>
    <tripinfo id="16" depart="34.00" departLane="256961141#0_0" departPos="5.10" departSpeed="0.00" departDelay="0.12" arrival="122.00" arrivalLane="450554042#0_0" arrivalPos="622.66" arrivalSpeed="15.78" duration="88.00" routeLength="853.74" waitingTime="23.00" waitingCount="1" stopTime="0.00" timeLoss="33.95" rerouteNo="0" devices="tripinfo_16" vType="DEFAULT_VEHTYPE" speedFactor="1.01" vaporized=""/>
    <tripinfo id="0" depart="0.00" departLane="65746828#0_0" departPos="5.10" departSpeed="0.00" departDelay="0.00" arrival="125.00" arrivalLane="-256961141#1_1" arrivalPos="204.72" arrivalSpeed="11.79" duration="125.00" routeLength="931.50" waitingTime="39.00" waitingCount="2" stopTime="0.00" timeLoss="56.96" rerouteNo="0" devices="tripinfo_0" vType="DEFAULT_VEHTYPE" speedFactor="0.92" vaporized=""/>
    <tripinfo id="30" depart="64.00" departLane="E8_0" departPos="5.10" departSpeed="0.00" departDelay="0.47" arrival="126.00" arrivalLane="226276377#0_1" arrivalPos="135.52" arrivalSpeed="13.34" duration="62.00" routeLength="784.51" waitingTime="0.00" waitingCount="0" stopTime="0.00" timeLoss="6.20" rerouteNo="0" devices="tripinfo_30" vType="DEFAULT_VEHTYPE" speedFactor="1.03" vaporized=""/>
    <tripinfo id="32" depart="68.00" departLane="978867529_0" departPos="5.10" departSpeed="0.00" departDelay="0.24" arrival="138.00" arrivalLane="231177697#0_1" arrivalPos="74.44" arrivalSpeed="12.33" duration="70.00" routeLength="437.06" waitingTime="29.00" waitingCount="1" stopTime="0.00" timeLoss="39.57" rerouteNo="0" devices="tripinfo_32" vType="DEFAULT_VEHTYPE" speedFactor="0.94" vaporized=""/>
    <tripinfo id="7" depart="15.00" departLane="65746828#0_0" departPos="5.10" departSpeed="0.00" departDelay="0.18" arrival="141.00" arrivalLane="218680176#0_1" arrivalPos="98.94" arrivalSpeed="12.09" duration="126.00" routeLength="602.71" waitingTime="62.00" waitingCount="2" stopTime="0.00" timeLoss="77.21" rerouteNo="0" devices="tripinfo_7" vType="DEFAULT_VEHTYPE" speedFactor="0.91" vaporized=""/>
    <tripinfo id="27" depart="58.00" departLane="65746828#0_0" departPos="5.10" departSpeed="0.00" departDelay="0.82" arrival="141.00" arrivalLane="226276377#0_0" arrivalPos="135.52" arrivalSpeed="15.12" duration="83.00" routeLength="841.69" waitingTime="18.00" waitingCount="1" stopTime="0.00" timeLoss="32.43" rerouteNo="0" devices="tripinfo_27" vType="DEFAULT_VEHTYPE" speedFactor="1.12" vaporized=""/>
    <tripinfo id="17" depart="36.00" departLane="-661251539_0" departPos="5.10" departSpeed="0.00" departDelay="0.00" arrival="143.00" arrivalLane="218680176#0_1" arrivalPos="98.94" arrivalSpeed="13.71" duration="107.00" routeLength="1001.21" waitingTime="14.00" waitingCount="2" stopTime="0.00" timeLoss="36.60" rerouteNo="0" devices="tripinfo_17" vType="DEFAULT_VEHTYPE" speedFactor="1.05" vaporized=""/>
    <tripinfo id="5" depart="11.00" departLane="-226276377#1_0" departPos="5.10" departSpeed="0.00" departDelay="0.41" arrival="144.00" arrivalLane="218680176#0_1" arrivalPos="98.94" arrivalSpeed="12.75" duration="133.00" routeLength="1158.55" waitingTime="29.00" waitingCount="1" stopTime="0.00" timeLoss="51.63" rerouteNo="0" devices="tripinfo_5" vType="DEFAULT_VEHTYPE" speedFactor="0.98" vaporized=""/>
    <tripinfo id="3" depart="7.00" departLane="E8_0" departPos="5.10" departSpeed="0.00" departDelay="0.65" arrival="146.00" arrivalLane="-256961141#1_0" arrivalPos="204.72" arrivalSpeed="14.44" duration="139.00" routeLength="832.89" waitingTime="69.00" waitingCount="1" stopTime="0.00" timeLoss="80.96" rerouteNo="0" devices="tripinfo_3" vType="DEFAULT_VEHTYPE" speedFactor="1.06" vaporized=""/>
    <tripinfo id="29" depart="63.00" departLane="-226276377#1_0" departPos="5.10" departSpeed="0.00" departDelay="1.59" arrival="148.00" arrivalLane="210831347#0_1" arrivalPos="149.88" arrivalSpeed="11.25" duration="85.00" routeLength="888.52" waitingTime="0.00" waitingCount="0" stopTime="0.00" timeLoss="11.27" rerouteNo="0" devices="tripinfo_29" vType="DEFAULT_VEHTYPE" speedFactor="0.83" vaporized=""/>
    <tripinfo id="1" depart="3.00" departLane="-231177697#2_0" departPos="5.10" departSpeed="0.00" departDelay="0.88" arrival="152.00" arrivalLane="210831345#1_1" arrivalPos="264.29" arrivalSpeed="14.59" duration="149.00" routeLength="696.92" waitingTime="81.00" waitingCount="2" stopTime="0.00" timeLoss="100.23" rerouteNo="0" devices="tripinfo_1" vType="DEFAULT_VEHTYPE" speedFactor="1.06" vaporized=""/>
    <tripinfo id="21" depart="45.00" departLane="-231177697#2_0" departPos="5.10" departSpeed="0.00" departDelay="0.53" arrival="154.00" arrivalLane="210831345#1_1" arrivalPos="264.29" arrivalSpeed="13.90" duration="109.00" routeLength="696.92" waitingTime="43.00" waitingCount="2" stopTime="0.00" timeLoss="60.43" rerouteNo="0" devices="tripinfo_21" vType="DEFAULT_VEHTYPE" speedFactor="1.06" vaporized=""/>
    <tripinfo id="34" depart="72.00" departLane="-231177697#2_0" departPos="5.10" departSpeed="0.00" departDelay="0.00" arrival="158.00" arrivalLane="210831345#1_1" arrivalPos="264.29" arrivalSpeed="12.17" duration="86.00" routeLength="696.92" waitingTime="16.00" waitingCount="1" stopTime="0.00" timeLoss="32.61" rerouteNo="0" devices="tripinfo_34" vType="DEFAULT_VEHTYPE" speedFactor="0.97" vaporized=""/>
    <tripinfo id="39" depart="83.00" departLane="-231177697#2_0" departPos="5.10" departSpeed="0.00" departDelay="0.41" arrival="159.00" arrivalLane="210831345#1_1" arrivalPos="264.29" arrivalSpeed="13.53" duration="76.00" routeLength="696.92" waitingTime="12.00" waitingCount="1" stopTime="0.00" timeLoss="26.44" rerouteNo="0" devices="tripinfo_39" vType="DEFAULT_VEHTYPE" speedFactor="1.03" vaporized=""/>
    <tripinfo id="36" depart="77.00" departLane="978867529_0" departPos="5.10" departSpeed="0.00" departDelay="0.76" arrival="161.00" arrivalLane="210831345#1_1" arrivalPos="264.29" arrivalSpeed="14.06" duration="84.00" routeLength="951.92" waitingTime="1.00" waitingCount="1" stopTime="0.00" timeLoss="21.66" rerouteNo="0" devices="tripinfo_36" vType="DEFAULT_VEHTYPE" speedFactor="1.05" vaporized=""/>
    <tripinfo id="35" depart="75.00" departLane="-226276377#1_0" departPos="5.10" departSpeed="0.00" departDelay="0.88" arrival="169.00" arrivalLane="450554042#0_0" arrivalPos="622.66" arrivalSpeed="15.16" duration="94.00" routeLength="763.53" waitingTime="32.00" waitingCount="1" stopTime="0.00" timeLoss="41.41" rerouteNo="0" devices="tripinfo_35" vType="DEFAULT_VEHTYPE" speedFactor="0.91" vaporized=""/>
    <tripinfo id="40" depart="85.00" departLane="65746828#0_0" departPos="5.10" departSpeed="0.00" departDelay="0.29" arrival="175.00" arrivalLane="210831345#1_0" arrivalPos="264.29" arrivalSpeed="12.79" duration="90.00" routeLength="446.75" waitingTime="45.00" waitingCount="1" stopTime="0.00" timeLoss="54.98" rerouteNo="0" devices="tripinfo_40" vType="DEFAULT_VEHTYPE" speedFactor="0.94" vaporized=""/>
    <tripinfo id="26" depart="56.00" departLane="-231177697#2_0" departPos="5.10" departSpeed="0.00" departDelay="0.94" arrival="181.00" arrivalLane="450554042#0_0" arrivalPos="622.66" arrivalSpeed="16.89" duration="125.00" routeLength="1613.58" waitingTime="11.00" waitingCount="1" stopTime="0.00" timeLoss="26.16" rerouteNo="0" devices="tripinfo_26" vType="DEFAULT_VEHTYPE" speedFactor="1.04" vaporized=""/>
    <tripinfo id="51" depart="108.00" departLane="666135205#0_0" departPos="5.10" departSpeed="0.00" departDelay="0.00" arrival="182.00" arrivalLane="218680176#0_1" arrivalPos="98.94" arrivalSpeed="14.58" duration="74.00" routeLength="693.09" waitingTime="14.00" waitingCount="1" stopTime="0.00" timeLoss="25.50" rerouteNo="0" devices="tripinfo_51" vType="DEFAULT_VEHTYPE" speedFactor="1.06" vaporized=""/>
    <tripinfo id="50" depart="106.00" departLane="-218680176#1_0" departPos="5.10" departSpeed="0.00" departDelay="0.12" arrival="193.00" arrivalLane="231177697#0_0" arrivalPos="74.44" arrivalSpeed="13.43" duration="87.00" routeLength="205.97" waitingTime="53.00" waitingCount="2" stopTime="0.00" timeLoss="71.33" rerouteNo="0" devices="tripinfo_50" vType="DEFAULT_VEHTYPE" speedFactor="0.99" vaporized=""/>
    <tripinfo id="12" depart="26.00" departLane="E8_0" departPos="5.10" departSpeed="0.00" departDelay="0.59" arrival="194.00" arrivalLane="210831347#0_1" arrivalPos="149.88" arrivalSpeed="14.00" duration="168.00" routeLength="1367.17" waitingTime="60.00" waitingCount="2" stopTime="0.00" timeLoss="79.44" rerouteNo="0" devices="tripinfo_12" vType="DEFAULT_VEHTYPE" speedFactor="1.08" vaporized=""/>
    <tripinfo id="22" depart="47.00" departLane="-218680176#1_0" departPos="5.10" departSpeed="0.00" departDelay="0.41" arrival="200.00" arrivalLane="210831345#1_1" arrivalPos="264.29" arrivalSpeed="15.24" duration="153.00" routeLength="699.94" waitingTime="86.00" waitingCount="3" stopTime="0.00" timeLoss="109.89" rerouteNo="0" devices="tripinfo_22" vType="DEFAULT_VEHTYPE" speedFactor="1.19" vaporized=""/>
    <tripinfo id="68" depart="144.00" departLane="-218680176#1_0" departPos="5.10" departSpeed="0.00" departDelay="0.00" arrival="200.00" arrivalLane="231177697#0_0" arrivalPos="74.44" arrivalSpeed="11.75" duration="56.00" routeLength="205.97" waitingTime="19.00" waitingCount="2" stopTime="0.00" timeLoss="39.13" rerouteNo="0" devices="tripinfo_68" vType="DEFAULT_VEHTYPE" speedFactor="0.88" vaporized=""/>
    <tripinfo id="49" depart="105.00" departLane="E8_0" departPos="5.10" departSpeed="0.00" departDelay="1.24" arrival="203.00" arrivalLane="39907424_0" arrivalPos="316.44" arrivalSpeed="14.42" duration="98.00" routeLength="1303.68" waitingTime="0.00" waitingCount="0" stopTime="0.00" timeLoss="10.77" rerouteNo="0" devices="tripinfo_49" vType="DEFAULT_VEHTYPE" speedFactor="1.04" vaporized=""/>
    <tripinfo id="79" depart="168.00" departLane="-231177697#2_0" departPos="5.10" departSpeed="0.00" departDelay="0.71" arrival="206.00" arrivalLane="153964138#0_0" arrivalPos="337.99" arrivalSpeed="13.17" duration="38.00" routeLength="417.38" waitingTime="0.00" waitingCount="0" stopTime="0.00" timeLoss="6.03" rerouteNo="0" devices="tripinfo_79" vType="DEFAULT_VEHTYPE" speedFactor="0.86" vaporized=""/>
    <tripinfo id="57" depart="121.00" departLane="E8_0" departPos="5.10" departSpeed="0.00" departDelay="0.29" arrival="216.00" arrivalLane="39907424_0" arrivalPos="316.44" arrivalSpeed="14.02" duration="95.00" routeLength="1303.68" waitingTime="0.00" waitingCount="0" stopTime="0.00" timeLoss="11.89" rerouteNo="0" devices="tripinfo_57" vType="DEFAULT_VEHTYPE" speedFactor="1.10" vaporized=""/>
    <tripinfo id="75" depart="159.00" departLane="E8_0" departPos="5.10" departSpeed="0.00" departDelay="0.18" arrival="217.00" arrivalLane="226276377#0_1" arrivalPos="135.52" arrivalSpeed="14.80" duration="58.00" routeLength="784.51" waitingTime="0.00" waitingCount="0" stopTime="0.00" timeLoss="5.43" rerouteNo="0" devices="tripinfo_75" vType="DEFAULT_VEHTYPE" speedFactor="1.09" vaporized=""/>
    <tripinfo id="46" depart="98.00" departLane="978867529_0" departPos="5.10" departSpeed="0.00" departDelay="0.59" arrival="220.00" arrivalLane="210831347#0_0" arrivalPos="149.88" arrivalSpeed="14.60" duration="122.00" routeLength="812.56" waitingTime="56.00" waitingCount="1" stopTime="0.00" timeLoss="68.25" rerouteNo="0" devices="tripinfo_46" vType="DEFAULT_VEHTYPE" speedFactor="1.05" vaporized=""/>
    <tripinfo id="47" depart="100.00" departLane="-218680176#1_0" departPos="5.10" departSpeed="0.00" departDelay="0.47" arrival="223.00" arrivalLane="210831347#0_0" arrivalPos="149.88" arrivalSpeed="12.87" duration="123.00" routeLength="560.58" waitingTime="58.00" waitingCount="2" stopTime="0.00" timeLoss="79.99" rerouteNo="0" devices="tripinfo_47" vType="DEFAULT_VEHTYPE" speedFactor="0.99" vaporized=""/>
    <tripinfo id="54" depart="115.00" departLane="256961141#0_0" departPos="5.10" departSpeed="0.00" departDelay="0.65" arrival="225.00" arrivalLane="450554042#0_0" arrivalPos="622.66" arrivalSpeed="15.12" duration="110.00" routeLength="853.74" waitingTime="41.00" waitingCount="1" stopTime="0.00" timeLoss="51.61" rerouteNo="0" devices="tripinfo_54" vType="DEFAULT_VEHTYPE" speedFactor="0.93" vaporized=""/>
    <tripinfo id="20" depart="43.00" departLane="666135205#0_0" departPos="5.10" departSpeed="0.00" departDelay="0.65" arrival="226.00" arrivalLane="-256961141#1_1" arrivalPos="204.72" arrivalSpeed="11.29" duration="183.00" routeLength="1068.72" waitingTime="86.00" waitingCount="2" stopTime="0.00" timeLoss="101.85" rerouteNo="0" devices="tripinfo_20" vType="DEFAULT_VEHTYPE" speedFactor="0.89" vaporized=""/>
    <tripinfo id="13" depart="28.00" departLane="-218680176#1_0" departPos="5.10" departSpeed="0.00" departDelay="0.47" arrival="228.00" arrivalLane="-256961141#1_1" arrivalPos="204.72" arrivalSpeed="12.61" duration="200.00" routeLength="1207.38" waitingTime="88.00" waitingCount="2" stopTime="0.00" timeLoss="109.71" rerouteNo="0" devices="tripinfo_13" vType="DEFAULT_VEHTYPE" speedFactor="0.91" vaporized=""/>
    <tripinfo id="33" depart="70.00" departLane="-231177697#2_0" departPos="5.10" departSpeed="0.00" departDelay="0.12" arrival="229.00" arrivalLane="-256961141#1_1" arrivalPos="204.72" arrivalSpeed="13.89" duration="159.00" routeLength="1204.36" waitingTime="57.00" waitingCount="1" stopTime="0.00" timeLoss="85.28" rerouteNo="0" devices="tripinfo_33" vType="DEFAULT_VEHTYPE" speedFactor="1.11" vaporized=""/>
    <tripinfo id="28" depart="60.00" departLane="-226276377#1_0" departPos="5.10" departSpeed="0.00" departDelay="0.71" arrival="239.00" arrivalLane="231177697#0_0" arrivalPos="74.44" arrivalSpeed="12.52" duration="179.00" routeLength="1114.63" waitingTime="80.00" waitingCount="2" stopTime="0.00" timeLoss="98.38" rerouteNo="0" devices="tripinfo_28" vType="DEFAULT_VEHTYPE" speedFactor="0.96" vaporized=""/>
    <tripinfo id="61" depart="130.00" departLane="978867529_0" departPos="5.10" departSpeed="0.00" departDelay="0.82" arrival="239.00" arrivalLane="218680176#0_0" arrivalPos="98.94" arrivalSpeed="11.82" duration="109.00" routeLength="442.15" waitingTime="68.00" waitingCount="1" stopTime="0.00" timeLoss="78.05" rerouteNo="0" devices="tripinfo_61" vType="DEFAULT_VEHTYPE" speedFactor="0.94" vaporized=""/>
    <tripinfo id="77" depart="164.00" departLane="-226276377#1_0" departPos="5.10" departSpeed="0.00" departDelay="0.94" arrival="239.00" arrivalLane="210831345#1_0" arrivalPos="264.29" arrivalSpeed="16.03" duration="75.00" routeLength="977.93" waitingTime="0.00" waitingCount="0" stopTime="0.00" timeLoss="16.56" rerouteNo="0" devices="tripinfo_77" vType="DEFAULT_VEHTYPE" speedFactor="1.17" vaporized=""/>
    <tripinfo id="53" depart="113.00" departLane="-226276377#1_0" departPos="5.10" departSpeed="0.00" departDelay="0.76" arrival="243.00" arrivalLane="210831347#0_1" arrivalPos="149.88" arrivalSpeed="15.67" duration="130.00" routeLength="888.52" waitingTime="62.00" waitingCount="2" stopTime="0.00" timeLoss="78.32" rerouteNo="0" devices="tripinfo_53" vType="DEFAULT_VEHTYPE" speedFactor="1.19" vaporized=""/>
    <tripinfo id="74" depart="157.00" departLane="-226276377#1_0" departPos="5.10" departSpeed="0.00" departDelay="0.29" arrival="247.00" arrivalLane="210831345#1_0" arrivalPos="264.29" arrivalSpeed="13.17" duration="90.00" routeLength="977.93" waitingTime="6.00" waitingCount="1" stopTime="0.00" timeLoss="20.12" rerouteNo="0" devices="tripinfo_74" vType="DEFAULT_VEHTYPE" speedFactor="0.97" vaporized=""/>
    <tripinfo id="23" depart="50.00" departLane="-218680176#1_0" departPos="5.10" departSpeed="0.00" departDelay="1.29" arrival="253.00" arrivalLane="210831345#1_1" arrivalPos="264.29" arrivalSpeed="12.92" duration="203.00" routeLength="699.94" waitingTime="127.00" waitingCount="4" stopTime="0.00" timeLoss="151.92" rerouteNo="0" devices="tripinfo_23" vType="DEFAULT_VEHTYPE" speedFactor="1.01" vaporized=""/>
    <tripinfo id="25" depart="53.00" departLane="-661251539_0" departPos="5.10" departSpeed="0.00" departDelay="0.06" arrival="253.00" arrivalLane="153964138#0_0" arrivalPos="337.99" arrivalSpeed="16.90" duration="200.00" routeLength="1239.04" waitingTime="95.00" waitingCount="2" stopTime="0.00" timeLoss="115.75" rerouteNo="0" devices="tripinfo_25" vType="DEFAULT_VEHTYPE" speedFactor="1.02" vaporized=""/>
    <tripinfo id="69" depart="147.00" departLane="666135205#0_0" departPos="5.10" departSpeed="0.00" departDelay="0.88" arrival="253.00" arrivalLane="153964138#0_2" arrivalPos="337.99" arrivalSpeed="16.74" duration="106.00" routeLength="924.87" waitingTime="28.00" waitingCount="1" stopTime="0.00" timeLoss="44.13" rerouteNo="0" devices="tripinfo_69" vType="DEFAULT_VEHTYPE" speedFactor="1.03" vaporized=""/>
    <tripinfo id="62" depart="132.00" departLane="-218680176#1_0" departPos="5.10" departSpeed="0.00" departDelay="0.71" arrival="254.00" arrivalLane="210831345#1_1" arrivalPos="264.29" arrivalSpeed="13.95" duration="122.00" routeLength="699.94" waitingTime="47.00" waitingCount="3" stopTime="0.00" timeLoss="74.80" rerouteNo="0" devices="tripinfo_62" vType="DEFAULT_VEHTYPE" speedFactor="1.09" vaporized=""/>
    <tripinfo id="72" depart="153.00" departLane="-661251539_0" departPos="5.10" departSpeed="0.00" departDelay="0.53" arrival="254.00" arrivalLane="153964138#0_1" arrivalPos="337.99" arrivalSpeed="16.62" duration="101.00" routeLength="1239.04" waitingTime="1.00" waitingCount="1" stopTime="0.00" timeLoss="20.41" rerouteNo="0" devices="tripinfo_72" vType="DEFAULT_VEHTYPE" speedFactor="1.07" vaporized=""/>
    <tripinfo id="11" depart="24.00" departLane="-661251539_0" departPos="5.10" departSpeed="0.00" departDelay="0.71" arrival="255.00" arrivalLane="153964138#0_0" arrivalPos="337.99" arrivalSpeed="14.45" duration="231.00" routeLength="1239.04" waitingTime="117.00" waitingCount="2" stopTime="0.00" timeLoss="138.54" rerouteNo="0" devices="tripinfo_11" vType="DEFAULT_VEHTYPE" speedFactor="0.92" vaporized=""/>
    <tripinfo id="42" depart="89.00" departLane="-661251539_0" departPos="5.10" departSpeed="0.00" departDelay="0.06" arrival="258.00" arrivalLane="153964138#0_0" arrivalPos="337.99" arrivalSpeed="15.87" duration="169.00" routeLength="1239.04" waitingTime="60.00" waitingCount="2" stopTime="0.00" timeLoss="80.43" rerouteNo="0" devices="tripinfo_42" vType="DEFAULT_VEHTYPE" speedFactor="0.97" vaporized=""/>
    <tripinfo id="60" depart="128.00" departLane="666135205#0_0" departPos="5.10" departSpeed="0.00" departDelay="0.94" arrival="265.00" arrivalLane="218680176#0_1" arrivalPos="98.94" arrivalSpeed="12.56" duration="137.00" routeLength="693.09" waitingTime="71.00" waitingCount="1" stopTime="0.00" timeLoss="83.10" rerouteNo="0" devices="tripinfo_60" vType="DEFAULT_VEHTYPE" speedFactor="0.95" vaporized=""/>
    <tripinfo id="38" depart="81.00" departLane="E8_0" departPos="5.10" departSpeed="0.00" departDelay="0.53" arrival="267.00" arrivalLane="218680176#0_1" arrivalPos="98.94" arrivalSpeed="15.52" duration="186.00" routeLength="1637.20" waitingTime="53.00" waitingCount="2" stopTime="0.00" timeLoss="85.28" rerouteNo="0" devices="tripinfo_38" vType="DEFAULT_VEHTYPE" speedFactor="1.14" vaporized=""/>
    <tripinfo id="43" depart="92.00" departLane="E8_0" departPos="5.10" departSpeed="0.00" departDelay="0.94" arrival="270.00" arrivalLane="218680176#0_1" arrivalPos="98.94" arrivalSpeed="13.25" duration="178.00" routeLength="1637.20" waitingTime="34.00" waitingCount="2" stopTime="0.00" timeLoss="57.42" rerouteNo="0" devices="tripinfo_43" vType="DEFAULT_VEHTYPE" speedFactor="0.95" vaporized=""/>
    <tripinfo id="48" depart="102.00" departLane="E8_0" departPos="5.10" departSpeed="0.00" departDelay="0.35" arrival="272.00" arrivalLane="218680176#0_1" arrivalPos="98.94" arrivalSpeed="12.52" duration="170.00" routeLength="1637.20" waitingTime="21.00" waitingCount="2" stopTime="0.00" timeLoss="45.46" rerouteNo="0" devices="tripinfo_48" vType="DEFAULT_VEHTYPE" speedFactor="0.92" vaporized=""/>
    <tripinfo id="114" depart="242.00" departLane="-226276377#1_0" departPos="5.10" departSpeed="0.00" departDelay="0.59" arrival="291.00" arrivalLane="450554042#0_0" arrivalPos="622.66" arrivalSpeed="18.87" duration="49.00" routeLength="763.53" waitingTime="0.00" waitingCount="0" stopTime="0.00" timeLoss="7.85" rerouteNo="0" devices="tripinfo_114" vType="DEFAULT_VEHTYPE" speedFactor="1.18" vaporized=""/>
    <tripinfo id="88" depart="187.00" departLane="-218680176#1_0" departPos="5.10" departSpeed="0.00" departDelay="0.65" arrival="296.00" arrivalLane="210831347#0_0" arrivalPos="149.88" arrivalSpeed="10.86" duration="109.00" routeLength="560.58" waitingTime="45.00" waitingCount="1" stopTime="0.00" timeLoss="56.76" rerouteNo="0" devices="tripinfo_88" vType="DEFAULT_VEHTYPE" speedFactor="0.81" vaporized=""/>
    <tripinfo id="117" depart="248.00" departLane="-231177697#2_0" departPos="5.10" departSpeed="0.00" departDelay="0.24" arrival="298.00" arrivalLane="153964138#0_0" arrivalPos="337.99" arrivalSpeed="15.39" duration="50.00" routeLength="417.38" waitingTime="15.00" waitingCount="1" stopTime="0.00" timeLoss="22.73" rerouteNo="0" devices="tripinfo_117" vType="DEFAULT_VEHTYPE" speedFactor="0.98" vaporized=""/>
    <tripinfo id="109" depart="231.00" departLane="-226276377#1_0" departPos="5.10" departSpeed="0.00" departDelay="0.18" arrival="303.00" arrivalLane="210831345#1_1" arrivalPos="264.29" arrivalSpeed="15.95" duration="72.00" routeLength="977.93" waitingTime="2.00" waitingCount="1" stopTime="0.00" timeLoss="16.74" rerouteNo="0" devices="tripinfo_109" vType="DEFAULT_VEHTYPE" speedFactor="1.23" vaporized=""/>
    <tripinfo id="95" depart="202.00" departLane="-661251539_0" departPos="5.10" departSpeed="0.00" departDelay="0.82" arrival="307.00" arrivalLane="210831345#1_0" arrivalPos="264.29" arrivalSpeed="10.63" duration="105.00" routeLength="826.64" waitingTime="16.00" waitingCount="2" stopTime="0.00" timeLoss="33.82" rerouteNo="0" devices="tripinfo_95" vType="DEFAULT_VEHTYPE" speedFactor="0.85" vaporized=""/>
    <tripinfo id="86" depart="183.00" departLane="256961141#0_0" departPos="5.10" departSpeed="0.00" departDelay="0.88" arrival="313.00" arrivalLane="39907424_0" arrivalPos="316.44" arrivalSpeed="13.29" duration="130.00" routeLength="873.95" waitingTime="46.00" waitingCount="2" stopTime="0.00" timeLoss="70.33" rerouteNo="0" devices="tripinfo_86" vType="DEFAULT_VEHTYPE" speedFactor="1.03" vaporized=""/>
    <tripinfo id="113" depart="240.00" departLane="256961141#0_0" departPos="5.10" departSpeed="0.00" departDelay="0.71" arrival="315.00" arrivalLane="39907424_0" arrivalPos="316.44" arrivalSpeed="14.57" duration="75.00" routeLength="873.95" waitingTime="1.00" waitingCount="1" stopTime="0.00" timeLoss="20.68" rerouteNo="0" devices="tripinfo_113" vType="DEFAULT_VEHTYPE" speedFactor="1.12" vaporized=""/>
    <tripinfo id="92" depart="195.00" departLane="-661251539_0" departPos="5.10" departSpeed="0.00" departDelay="0.18" arrival="319.00" arrivalLane="210831347#0_1" arrivalPos="149.88" arrivalSpeed="13.51" duration="124.00" routeLength="731.18" waitingTime="55.00" waitingCount="2" stopTime="0.00" timeLoss="72.75" rerouteNo="0" devices="tripinfo_92" vType="DEFAULT_VEHTYPE" speedFactor="1.06" vaporized=""/>
    <tripinfo id="106" depart="225.00" departLane="256961141#0_0" departPos="5.10" departSpeed="0.00" departDelay="0.53" arrival="320.00" arrivalLane="210831347#0_1" arrivalPos="149.88" arrivalSpeed="15.35" duration="95.00" routeLength="937.44" waitingTime="14.00" waitingCount="2" stopTime="0.00" timeLoss="37.06" rerouteNo="0" devices="tripinfo_106" vType="DEFAULT_VEHTYPE" speedFactor="1.12" vaporized=""/>
    <tripinfo id="78" depart="166.00" departLane="-661251539_0" departPos="5.10" departSpeed="0.00" departDelay="0.82" arrival="321.00" arrivalLane="226276377#0_0" arrivalPos="135.52" arrivalSpeed="12.09" duration="155.00" routeLength="783.10" waitingTime="74.00" waitingCount="2" stopTime="0.00" timeLoss="93.03" rerouteNo="0" devices="tripinfo_78" vType="DEFAULT_VEHTYPE" speedFactor="0.89" vaporized=""/>
    <tripinfo id="19" depart="42.00" departLane="978867529_0" departPos="5.10" departSpeed="0.00" departDelay="1.76" arrival="322.00" arrivalLane="226276377#0_0" arrivalPos="135.52" arrivalSpeed="13.53" duration="280.00" routeLength="1369.55" waitingTime="163.00" waitingCount="3" stopTime="0.00" timeLoss="190.04" rerouteNo="0" devices="tripinfo_19" vType="DEFAULT_VEHTYPE" speedFactor="1.00" vaporized=""/>
    <tripinfo id="91" depart="193.00" departLane="E8_0" departPos="5.10" departSpeed="0.00" departDelay="0.29" arrival="323.00" arrivalLane="-256961141#1_0" arrivalPos="204.72" arrivalSpeed="12.16" duration="130.00" routeLength="832.89" waitingTime="55.00" waitingCount="1" stopTime="0.00" timeLoss="66.16" rerouteNo="0" devices="tripinfo_91" vType="DEFAULT_VEHTYPE" speedFactor="0.95" vaporized=""/>
    <tripinfo id="121" depart="257.00" departLane="256961141#0_0" departPos="5.10" departSpeed="0.00" departDelay="0.76" arrival="323.00" arrivalLane="450554042#0_0" arrivalPos="622.66" arrivalSpeed="15.64" duration="66.00" routeLength="853.74" waitingTime="0.00" waitingCount="0" stopTime="0.00" timeLoss="8.74" rerouteNo="0" devices="tripinfo_121" vType="DEFAULT_VEHTYPE" speedFactor="0.95" vaporized=""/>
    <tripinfo id="14" depart="30.00" departLane="978867529_0" departPos="5.10" departSpeed="0.00" departDelay="0.35" arrival="324.00" arrivalLane="226276377#0_0" arrivalPos="135.52" arrivalSpeed="14.29" duration="294.00" routeLength="1369.55" waitingTime="175.00" waitingCount="3" stopTime="0.00" timeLoss="211.09" rerouteNo="0" devices="tripinfo_14" vType="DEFAULT_VEHTYPE" speedFactor="1.09" vaporized=""/>