<?xml version="1.0" encoding="UTF-8"?>

<!-- generated on 2024-08-31 17:33:56 by Eclipse SUMO sumo Version 1.20.0
<configuration xmlns:xsi="http://www.w3.org/2001/XMLSchema-instance" xsi:noNamespaceSchemaLocation="http://sumo.dlr.de/xsd/sumoConfiguration.xsd">

    <input>
        <net-file value="c:\self\School\Master\Disertation\code\RESCO\resco_benchmark\environments/pantelimon/osm.net.xml.gz"/>
        <route-files value="c:\self\School\Master\Disertation\code\RESCO\resco_benchmark\environments/pantelimon/osm.passenger.trips.xml"/>
        <additional-files value="c:\self\School\Master\Disertation\code\RESCO\resco_benchmark\environments/pantelimon/osm.poly.xml.gz"/>
    </input>

    <output>
        <tripinfo-output value="C:\self\School\Master\Disertation\code\RESCO\results\IDQN-tr0-pantelimon-0-drq-wait\tripinfo_92.xml"/>
        <tripinfo-output.write-unfinished value="true"/>
    </output>

    <processing>
        <ignore-route-errors value="true"/>
        <time-to-teleport value="-1"/>
    </processing>

    <routing>
        <device.rerouting.adaptation-steps value="18"/>
        <device.rerouting.adaptation-interval value="10"/>
    </routing>

    <report>
        <verbose value="true"/>
        <no-warnings value="True"/>
        <duration-log.statistics value="true"/>
        <no-step-log value="True"/>
    </report>

    <traci_server>
        <remote-port value="51323"/>
    </traci_server>

    <random_number>
        <random value="true"/>
    </random_number>

    <gui_only>
        <gui-settings-file value="c:\self\School\Master\Disertation\code\RESCO\resco_benchmark\environments/pantelimon/osm.view.xml"/>
    </gui_only>

</configuration>
-->

<tripinfos xmlns:xsi="http://www.w3.org/2001/XMLSchema-instance" xsi:noNamespaceSchemaLocation="http://sumo.dlr.de/xsd/tripinfo_file.xsd">
    <tripinfo id="3" depart="4.00" departLane="7971104#0_0" departPos="5.10" departSpeed="0.00" departDelay="0.40" arrival="60.00" arrivalLane="-23580688#1_0" arrivalPos="330.93" arrivalSpeed="13.93" duration="56.00" routeLength="689.53" waitingTime="0.00" waitingCount="0" stopTime="0.00" timeLoss="9.42" rerouteNo="1" devices="tripinfo_3 routing_3" vType="DEFAULT_VEHTYPE" speedFactor="1.04" vaporized=""/>
    <tripinfo id="33" depart="40.00" departLane="108381877#0_0" departPos="5.10" departSpeed="0.00" departDelay="0.40" arrival="79.00" arrivalLane="-1299556464_0" arrivalPos="305.41" arrivalSpeed="11.20" duration="39.00" routeLength="412.56" waitingTime="0.00" waitingCount="0" stopTime="0.00" timeLoss="5.37" rerouteNo="1" devices="tripinfo_33 routing_33" vType="DEFAULT_VEHTYPE" speedFactor="0.88" vaporized=""/>
    <tripinfo id="11" depart="14.00" departLane="160483132#0_0" departPos="5.10" departSpeed="0.00" departDelay="0.80" arrival="83.00" arrivalLane="194455230#0_0" arrivalPos="24.91" arrivalSpeed="11.13" duration="69.00" routeLength="712.89" waitingTime="0.00" waitingCount="0" stopTime="0.00" timeLoss="5.94" rerouteNo="1" devices="tripinfo_11 routing_11" vType="DEFAULT_VEHTYPE" speedFactor="0.83" vaporized=""/>
    <tripinfo id="46" depart="56.00" departLane="667739179_0" departPos="5.10" departSpeed="0.00" departDelay="0.80" arrival="107.00" arrivalLane="23499828_0" arrivalPos="213.11" arrivalSpeed="17.40" duration="51.00" routeLength="794.00" waitingTime="0.00" waitingCount="0" stopTime="0.00" timeLoss="9.04" rerouteNo="1" devices="tripinfo_46 routing_46" vType="DEFAULT_VEHTYPE" speedFactor="1.26" vaporized=""/>
    <tripinfo id="7" depart="9.00" departLane="294600266#0_0" departPos="5.10" departSpeed="0.00" departDelay="0.60" arrival="139.00" arrivalLane="236238105#0_0" arrivalPos="603.72" arrivalSpeed="13.64" duration="130.00" routeLength="1359.20" waitingTime="14.00" waitingCount="1" stopTime="0.00" timeLoss="28.31" rerouteNo="1" devices="tripinfo_7 routing_7" vType="DEFAULT_VEHTYPE" speedFactor="0.83" vaporized=""/>
    <tripinfo id="97" depart="117.00" departLane="239925116#0_0" departPos="5.10" departSpeed="0.00" departDelay="0.60" arrival="159.00" arrivalLane="669763272_0" arrivalPos="31.34" arrivalSpeed="10.33" duration="42.00" routeLength="430.64" waitingTime="0.00" waitingCount="0" stopTime="0.00" timeLoss="4.80" rerouteNo="1" devices="tripinfo_97 routing_97" vType="DEFAULT_VEHTYPE" speedFactor="0.80" vaporized=""/>
    <tripinfo id="16" depart="20.00" departLane="252334765#0_0" departPos="5.10" departSpeed="0.00" departDelay="0.80" arrival="174.00" arrivalLane="982306344#0_0" arrivalPos="520.72" arrivalSpeed="11.31" duration="154.00" routeLength="1256.80" waitingTime="28.00" waitingCount="1" stopTime="0.00" timeLoss="45.16" rerouteNo="1" devices="tripinfo_16 routing_16" vType="DEFAULT_VEHTYPE" speedFactor="0.85" vaporized=""/>
    <tripinfo id="15" depart="20.00" departLane="667739179_0" departPos="5.10" departSpeed="0.00" departDelay="2.00" arrival="176.00" arrivalLane="669013752#1_1" arrivalPos="275.29" arrivalSpeed="19.00" duration="156.00" routeLength="1458.48" waitingTime="44.00" waitingCount="3" stopTime="0.00" timeLoss="72.31" rerouteNo="1" devices="tripinfo_15 routing_15" vType="DEFAULT_VEHTYPE" speedFactor="1.17" vaporized=""/>
    <tripinfo id="55" depart="66.00" departLane="7971104#0_0" departPos="5.10" departSpeed="0.00" departDelay="0.00" arrival="178.00" arrivalLane="206020663#2_0" arrivalPos="436.06" arrivalSpeed="13.65" duration="112.00" routeLength="1344.92" waitingTime="0.00" waitingCount="0" stopTime="0.00" timeLoss="10.22" rerouteNo="1" devices="tripinfo_55 routing_55" vType="DEFAULT_VEHTYPE" speedFactor="0.88" vaporized=""/>
    <tripinfo id="32" depart="39.00" departLane="667739179_0" departPos="5.10" departSpeed="0.00" departDelay="0.60" arrival="182.00" arrivalLane="669013752#1_1" arrivalPos="275.29" arrivalSpeed="15.36" duration="143.00" routeLength="1458.48" waitingTime="13.00" waitingCount="2" stopTime="0.00" timeLoss="39.45" rerouteNo="1" devices="tripinfo_32 routing_32" vType="DEFAULT_VEHTYPE" speedFactor="0.94" vaporized=""/>
    <tripinfo id="35" depart="42.00" departLane="1000260590#0_0" departPos="5.10" departSpeed="0.00" departDelay="0.00" arrival="182.00" arrivalLane="982306344#0_0" arrivalPos="520.72" arrivalSpeed="14.50" duration="140.00" routeLength="1817.45" waitingTime="19.00" waitingCount="1" stopTime="0.00" timeLoss="36.44" rerouteNo="1" devices="tripinfo_35 routing_35" vType="DEFAULT_VEHTYPE" speedFactor="1.13" vaporized=""/>
    <tripinfo id="42" depart="51.00" departLane="23580688#0_0" departPos="5.10" departSpeed="0.00" departDelay="0.60" arrival="183.00" arrivalLane="206020663#2_0" arrivalPos="436.06" arrivalSpeed="14.44" duration="132.00" routeLength="1318.57" waitingTime="19.00" waitingCount="1" stopTime="0.00" timeLoss="33.19" rerouteNo="1" devices="tripinfo_42 routing_42" vType="DEFAULT_VEHTYPE" speedFactor="0.92" vaporized=""/>
    <tripinfo id="50" depart="60.00" departLane="-243756780_0" departPos="5.10" departSpeed="0.00" departDelay="0.00" arrival="184.00" arrivalLane="669013752#1_1" arrivalPos="275.29" arrivalSpeed="15.89" duration="124.00" routeLength="1312.17" waitingTime="8.00" waitingCount="2" stopTime="0.00" timeLoss="30.85" rerouteNo="1" devices="tripinfo_50 routing_50" vType="DEFAULT_VEHTYPE" speedFactor="0.98" vaporized=""/>
    <tripinfo id="8" depart="10.00" departLane="108381877#0_0" departPos="5.10" departSpeed="0.00" departDelay="0.40" arrival="194.00" arrivalLane="269541313#0_0" arrivalPos="99.33" arrivalSpeed="12.59" duration="184.00" routeLength="2555.81" waitingTime="0.00" waitingCount="0" stopTime="0.00" timeLoss="16.49" rerouteNo="1" devices="tripinfo_8 routing_8" vType="DEFAULT_VEHTYPE" speedFactor="0.95" vaporized=""/>
    <tripinfo id="99" depart="119.00" departLane="853327081_0" departPos="5.10" departSpeed="0.00" departDelay="0.20" arrival="195.00" arrivalLane="669249475#0_0" arrivalPos="131.27" arrivalSpeed="11.62" duration="76.00" routeLength="687.37" waitingTime="11.00" waitingCount="1" stopTime="0.00" timeLoss="20.21" rerouteNo="1" devices="tripinfo_99 routing_99" vType="DEFAULT_VEHTYPE" speedFactor="0.91" vaporized=""/>
    <tripinfo id="93" depart="112.00" departLane="7971104#0_0" departPos="5.10" departSpeed="0.00" departDelay="0.40" arrival="202.00" arrivalLane="206020663#2_0" arrivalPos="436.06" arrivalSpeed="18.29" duration="90.00" routeLength="1344.92" waitingTime="0.00" waitingCount="0" stopTime="0.00" timeLoss="11.42" rerouteNo="1" devices="tripinfo_93 routing_93" vType="DEFAULT_VEHTYPE" speedFactor="1.14" vaporized=""/>
    <tripinfo id="142" depart="171.00" departLane="239925116#0_0" departPos="5.10" departSpeed="0.00" departDelay="0.60" arrival="203.00" arrivalLane="669763272_0" arrivalPos="31.34" arrivalSpeed="13.94" duration="32.00" routeLength="430.64" waitingTime="0.00" waitingCount="0" stopTime="0.00" timeLoss="5.24" rerouteNo="1" devices="tripinfo_142 routing_142" vType="DEFAULT_VEHTYPE" speedFactor="1.09" vaporized=""/>
    <tripinfo id="14" depart="17.00" departLane="667739179_0" departPos="5.10" departSpeed="0.00" departDelay="0.20" arrival="208.00" arrivalLane="269541313#0_0" arrivalPos="99.33" arrivalSpeed="13.19" duration="191.00" routeLength="2932.95" waitingTime="0.00" waitingCount="0" stopTime="0.00" timeLoss="12.75" rerouteNo="1" devices="tripinfo_14 routing_14" vType="DEFAULT_VEHTYPE" speedFactor="1.00" vaporized=""/>
    <tripinfo id="47" depart="57.00" departLane="-243756780_0" departPos="5.10" departSpeed="0.00" departDelay="0.60" arrival="216.00" arrivalLane="23499828_0" arrivalPos="213.11" arrivalSpeed="12.58" duration="159.00" routeLength="2085.76" waitingTime="0.00" waitingCount="0" stopTime="0.00" timeLoss="15.22" rerouteNo="1" devices="tripinfo_47 routing_47" vType="DEFAULT_VEHTYPE" speedFactor="0.94" vaporized=""/>
    <tripinfo id="25" depart="30.00" departLane="23580688#0_0" departPos="5.10" departSpeed="0.00" departDelay="0.00" arrival="224.00" arrivalLane="194455230#0_0" arrivalPos="24.91" arrivalSpeed="13.89" duration="194.00" routeLength="2199.13" waitingTime="15.00" waitingCount="2" stopTime="0.00" timeLoss="36.64" rerouteNo="1" devices="tripinfo_25 routing_25" vType="DEFAULT_VEHTYPE" speedFactor="1.03" vaporized=""/>
    <tripinfo id="9" depart="11.00" departLane="667739179_0" departPos="5.10" departSpeed="0.00" departDelay="0.20" arrival="225.00" arrivalLane="-1299556464_0" arrivalPos="305.41" arrivalSpeed="12.63" duration="214.00" routeLength="3244.03" waitingTime="0.00" waitingCount="0" stopTime="0.00" timeLoss="13.20" rerouteNo="1" devices="tripinfo_9 routing_9" vType="DEFAULT_VEHTYPE" speedFactor="0.99" vaporized=""/>
    <tripinfo id="41" depart="50.00" departLane="286193209_0" departPos="5.10" departSpeed="0.00" departDelay="0.80" arrival="225.00" arrivalLane="669763272_0" arrivalPos="31.34" arrivalSpeed="17.11" duration="175.00" routeLength="3162.19" waitingTime="0.00" waitingCount="0" stopTime="0.00" timeLoss="15.19" rerouteNo="1" devices="tripinfo_41 routing_41" vType="DEFAULT_VEHTYPE" speedFactor="1.28" vaporized=""/>
    <tripinfo id="71" depart="86.00" departLane="108381877#0_0" departPos="5.10" departSpeed="0.00" departDelay="0.80" arrival="230.00" arrivalLane="669763272_0" arrivalPos="31.34" arrivalSpeed="13.10" duration="144.00" routeLength="2043.17" waitingTime="0.00" waitingCount="0" stopTime="0.00" timeLoss="12.68" rerouteNo="1" devices="tripinfo_71 routing_71" vType="DEFAULT_VEHTYPE" speedFactor="0.97" vaporized=""/>
    <tripinfo id="95" depart="114.00" departLane="23580688#0_0" departPos="5.10" departSpeed="0.00" departDelay="0.00" arrival="234.00" arrivalLane="206020663#2_0" arrivalPos="436.06" arrivalSpeed="14.87" duration="120.00" routeLength="1318.57" waitingTime="9.00" waitingCount="1" stopTime="0.00" timeLoss="25.08" rerouteNo="1" devices="tripinfo_95 routing_95" vType="DEFAULT_VEHTYPE" speedFactor="0.96" vaporized=""/>
    <tripinfo id="38" depart="47.00" departLane="7971104#0_0" departPos="5.10" departSpeed="0.00" departDelay="1.40" arrival="238.00" arrivalLane="235427380#0_0" arrivalPos="50.37" arrivalSpeed="18.58" duration="191.00" routeLength="3156.71" waitingTime="0.00" waitingCount="0" stopTime="0.00" timeLoss="22.43" rerouteNo="1" devices="tripinfo_38 routing_38" vType="DEFAULT_VEHTYPE" speedFactor="1.13" vaporized=""/>
    <tripinfo id="81" depart="98.00" departLane="108381877#0_0" departPos="5.10" departSpeed="0.00" departDelay="0.80" arrival="238.00" arrivalLane="669763272_0" arrivalPos="31.34" arrivalSpeed="14.01" duration="140.00" routeLength="2041.42" waitingTime="0.00" waitingCount="0" stopTime="0.00" timeLoss="14.68" rerouteNo="1" devices="tripinfo_81 routing_81" vType="DEFAULT_VEHTYPE" speedFactor="1.01" vaporized=""/>
    <tripinfo id="31" depart="38.00" departLane="252334765#0_0" departPos="5.10" departSpeed="0.00" departDelay="0.80" arrival="242.00" arrivalLane="4049077#1_0" arrivalPos="49.21" arrivalSpeed="11.67" duration="204.00" routeLength="1883.04" waitingTime="44.00" waitingCount="2" stopTime="0.00" timeLoss="71.16" rerouteNo="1" devices="tripinfo_31 routing_31" vType="DEFAULT_VEHTYPE" speedFactor="0.92" vaporized=""/>
    <tripinfo id="52" depart="63.00" departLane="108381877#0_0" departPos="5.10" departSpeed="0.00" departDelay="0.60" arrival="243.00" arrivalLane="269541313#0_0" arrivalPos="99.33" arrivalSpeed="12.28" duration="180.00" routeLength="2557.56" waitingTime="0.00" waitingCount="0" stopTime="0.00" timeLoss="15.58" rerouteNo="1" devices="tripinfo_52 routing_52" vType="DEFAULT_VEHTYPE" speedFactor="0.97" vaporized=""/>
    <tripinfo id="17" depart="21.00" departLane="23580688#0_0" departPos="5.10" departSpeed="0.00" departDelay="0.60" arrival="245.00" arrivalLane="236238105#0_1" arrivalPos="603.72" arrivalSpeed="18.94" duration="224.00" routeLength="3493.45" waitingTime="14.00" waitingCount="1" stopTime="0.00" timeLoss="34.08" rerouteNo="1" devices="tripinfo_17 routing_17" vType="DEFAULT_VEHTYPE" speedFactor="1.15" vaporized=""/>
    <tripinfo id="51" depart="62.00" departLane="294600266#0_0" departPos="5.10" departSpeed="0.00" departDelay="0.80" arrival="247.00" arrivalLane="236238105#0_0" arrivalPos="603.72" arrivalSpeed="16.09" duration="185.00" routeLength="1361.32" waitingTime="77.00" waitingCount="3" stopTime="0.00" timeLoss="98.55" rerouteNo="1" devices="tripinfo_51 routing_51" vType="DEFAULT_VEHTYPE" speedFactor="0.98" vaporized=""/>
    <tripinfo id="118" depart="142.00" departLane="7971104#0_0" departPos="5.10" departSpeed="0.00" departDelay="0.40" arrival="252.00" arrivalLane="206020663#2_0" arrivalPos="436.06" arrivalSpeed="16.20" duration="110.00" routeLength="1344.92" waitingTime="4.00" waitingCount="1" stopTime="0.00" timeLoss="21.51" rerouteNo="1" devices="tripinfo_118 routing_118" vType="DEFAULT_VEHTYPE" speedFactor="1.00" vaporized=""/>
    <tripinfo id="19" depart="23.00" departLane="7971104#0_0" departPos="5.10" departSpeed="0.00" departDelay="0.20" arrival="254.00" arrivalLane="269541313#0_0" arrivalPos="99.33" arrivalSpeed="15.87" duration="231.00" routeLength="3367.68" waitingTime="25.00" waitingCount="1" stopTime="0.00" timeLoss="46.64" rerouteNo="1" devices="tripinfo_19 routing_19" vType="DEFAULT_VEHTYPE" speedFactor="1.15" vaporized=""/>
    <tripinfo id="116" depart="140.00" departLane="286193209_0" departPos="5.10" departSpeed="0.00" departDelay="0.80" arrival="256.00" arrivalLane="4049077#1_0" arrivalPos="49.21" arrivalSpeed="12.22" duration="116.00" routeLength="1629.32" waitingTime="0.00" waitingCount="0" stopTime="0.00" timeLoss="10.18" rerouteNo="1" devices="tripinfo_116 routing_116" vType="DEFAULT_VEHTYPE" speedFactor="0.94" vaporized=""/>
    <tripinfo id="80" depart="96.00" departLane="-243756780_0" departPos="5.10" departSpeed="0.00" departDelay="0.00" arrival="258.00" arrivalLane="269541313#0_0" arrivalPos="99.33" arrivalSpeed="15.17" duration="162.00" routeLength="2750.60" waitingTime="0.00" waitingCount="0" stopTime="0.00" timeLoss="15.40" rerouteNo="1" devices="tripinfo_80 routing_80" vType="DEFAULT_VEHTYPE" speedFactor="1.17" vaporized=""/>
    <tripinfo id="96" depart="116.00" departLane="108381877#0_0" departPos="5.10" departSpeed="0.00" departDelay="0.80" arrival="258.00" arrivalLane="669763272_0" arrivalPos="31.34" arrivalSpeed="13.19" duration="142.00" routeLength="2043.17" waitingTime="0.00" waitingCount="0" stopTime="0.00" timeLoss="18.09" rerouteNo="1" devices="tripinfo_96 routing_96" vType="DEFAULT_VEHTYPE" speedFactor="1.03" vaporized=""/>
    <tripinfo id="29" depart="37.00" departLane="1000260590#0_0" departPos="5.10" departSpeed="0.00" departDelay="2.20" arrival="259.00" arrivalLane="23499828_1" arrivalPos="213.11" arrivalSpeed="13.65" duration="222.00" routeLength="3127.35" waitingTime="0.00" waitingCount="0" stopTime="0.00" timeLoss="18.98" rerouteNo="1" devices="tripinfo_29 routing_29" vType="DEFAULT_VEHTYPE" speedFactor="1.03" vaporized=""/>
    <tripinfo id="49" depart="61.00" departLane="853327081_0" departPos="5.10" departSpeed="0.00" departDelay="2.20" arrival="262.00" arrivalLane="669763272_0" arrivalPos="31.34" arrivalSpeed="12.47" duration="201.00" routeLength="2298.06" waitingTime="7.00" waitingCount="1" stopTime="0.00" timeLoss="30.68" rerouteNo="1" devices="tripinfo_49 routing_49" vType="DEFAULT_VEHTYPE" speedFactor="0.97" vaporized=""/>
    <tripinfo id="106" depart="128.00" departLane="239925116#0_0" departPos="5.10" departSpeed="0.00" departDelay="0.80" arrival="263.00" arrivalLane="23499828_0" arrivalPos="213.11" arrivalSpeed="10.58" duration="135.00" routeLength="1224.27" waitingTime="25.00" waitingCount="1" stopTime="0.00" timeLoss="39.14" rerouteNo="1" devices="tripinfo_106 routing_106" vType="DEFAULT_VEHTYPE" speedFactor="0.84" vaporized=""/>
    <tripinfo id="2" depart="3.00" departLane="34774628#0_0" departPos="5.10" departSpeed="0.00" departDelay="0.60" arrival="266.00" arrivalLane="4049077#1_0" arrivalPos="49.21" arrivalSpeed="13.99" duration="263.00" routeLength="2901.67" waitingTime="49.00" waitingCount="1" stopTime="0.00" timeLoss="81.16" rerouteNo="1" devices="tripinfo_2 routing_2" vType="DEFAULT_VEHTYPE" speedFactor="1.08" vaporized=""/>
    <tripinfo id="21" depart="26.00" departLane="108381877#0_0" departPos="5.10" departSpeed="0.00" departDelay="0.80" arrival="269.00" arrivalLane="231916547#0_0" arrivalPos="151.53" arrivalSpeed="13.90" duration="243.00" routeLength="2648.15" waitingTime="15.00" waitingCount="1" stopTime="0.00" timeLoss="39.95" rerouteNo="1" devices="tripinfo_21 routing_21" vType="DEFAULT_VEHTYPE" speedFactor="0.87" vaporized=""/>
    <tripinfo id="57" depart="69.00" departLane="7971104#0_0" departPos="5.10" departSpeed="0.00" departDelay="0.60" arrival="269.00" arrivalLane="669763272_0" arrivalPos="31.34" arrivalSpeed="10.87" duration="200.00" routeLength="1685.92" waitingTime="46.00" waitingCount="2" stopTime="0.00" timeLoss="70.51" rerouteNo="1" devices="tripinfo_57 routing_57" vType="DEFAULT_VEHTYPE" speedFactor="0.86" vaporized=""/>
    <tripinfo id="211" depart="254.00" departLane="1000260590#0_0" departPos="5.10" departSpeed="0.00" departDelay="0.80" arrival="277.00" arrivalLane="4049077#1_0" arrivalPos="49.21" arrivalSpeed="13.23" duration="23.00" routeLength="227.16" waitingTime="0.00" waitingCount="0" stopTime="0.00" timeLoss="7.28" rerouteNo="1" devices="tripinfo_211 routing_211" vType="DEFAULT_VEHTYPE" speedFactor="1.02" vaporized=""/>
    <tripinfo id="4" depart="5.00" departLane="23580688#0_0" departPos="5.10" departSpeed="0.00" departDelay="0.20" arrival="278.00" arrivalLane="-1299556464_0" arrivalPos="305.41" arrivalSpeed="14.00" duration="273.00" routeLength="3652.41" waitingTime="29.00" waitingCount="1" stopTime="0.00" timeLoss="53.43" rerouteNo="1" devices="tripinfo_4 routing_4" vType="DEFAULT_VEHTYPE" speedFactor="1.07" vaporized=""/>
    <tripinfo id="68" depart="82.00" departLane="-243756780_0" departPos="5.10" departSpeed="0.00" departDelay="0.40" arrival="279.00" arrivalLane="669013752#1_1" arrivalPos="275.29" arrivalSpeed="15.60" duration="197.00" routeLength="1312.17" waitingTime="76.00" waitingCount="2" stopTime="0.00" timeLoss="103.54" rerouteNo="1" devices="tripinfo_68 routing_68" vType="DEFAULT_VEHTYPE" speedFactor="0.98" vaporized=""/>
    <tripinfo id="201" depart="242.00" departLane="239925116#0_0" departPos="5.10" departSpeed="0.00" departDelay="0.80" arrival="281.00" arrivalLane="669763272_0" arrivalPos="31.34" arrivalSpeed="13.60" duration="39.00" routeLength="430.64" waitingTime="0.00" waitingCount="0" stopTime="0.00" timeLoss="8.87" rerouteNo="1" devices="tripinfo_201 routing_201" vType="DEFAULT_VEHTYPE" speedFactor="0.99" vaporized=""/>
    <tripinfo id="86" depart="104.00" departLane="239925116#0_0" departPos="5.10" departSpeed="0.00" departDelay="0.80" arrival="282.00" arrivalLane="669013752#1_1" arrivalPos="275.29" arrivalSpeed="15.10" duration="178.00" routeLength="1830.23" waitingTime="27.00" waitingCount="2" stopTime="0.00" timeLoss="49.03" rerouteNo="1" devices="tripinfo_86 routing_86" vType="DEFAULT_VEHTYPE" speedFactor="0.94" vaporized=""/>
    <tripinfo id="144" depart="173.00" departLane="23580688#0_0" departPos="5.10" departSpeed="0.00" departDelay="0.20" arrival="283.00" arrivalLane="206020663#2_0" arrivalPos="436.06" arrivalSpeed="14.99" duration="110.00" routeLength="1318.57" waitingTime="3.00" waitingCount="1" stopTime="0.00" timeLoss="16.52" rerouteNo="1" devices="tripinfo_144 routing_144" vType="DEFAULT_VEHTYPE" speedFactor="0.97" vaporized=""/>
    <tripinfo id="94" depart="113.00" departLane="1000260590#0_0" departPos="5.10" departSpeed="0.00" departDelay="0.20" arrival="284.00" arrivalLane="235427380#0_0" arrivalPos="50.37" arrivalSpeed="15.09" duration="171.00" routeLength="1672.31" waitingTime="46.00" waitingCount="1" stopTime="0.00" timeLoss="62.06" rerouteNo="1" devices="tripinfo_94 routing_94" vType="DEFAULT_VEHTYPE" speedFactor="0.93" vaporized=""/>
    <tripinfo id="133" depart="160.00" departLane="286193209_0" departPos="5.10" departSpeed="0.00" departDelay="0.40" arrival="285.00" arrivalLane="982306344#0_0" arrivalPos="520.72" arrivalSpeed="11.28" duration="125.00" routeLength="1010.88" waitingTime="25.00" waitingCount="2" stopTime="0.00" timeLoss="44.43" rerouteNo="1" devices="tripinfo_133 routing_133" vType="DEFAULT_VEHTYPE" speedFactor="0.85" vaporized=""/>
    <tripinfo id="136" depart="164.00" departLane="294600266#0_0" departPos="5.10" departSpeed="0.00" departDelay="0.80" arrival="285.00" arrivalLane="982306344#0_1" arrivalPos="520.72" arrivalSpeed="11.92" duration="121.00" routeLength="1290.39" waitingTime="13.00" waitingCount="1" stopTime="0.00" timeLoss="27.98" rerouteNo="1" devices="tripinfo_136 routing_136" vType="DEFAULT_VEHTYPE" speedFactor="0.93" vaporized=""/>
    <tripinfo id="121" depart="146.00" departLane="252334765#0_0" departPos="5.10" departSpeed="0.00" departDelay="0.80" arrival="288.00" arrivalLane="982306344#0_0" arrivalPos="520.72" arrivalSpeed="14.17" duration="142.00" routeLength="1256.80" waitingTime="36.00" waitingCount="1" stopTime="0.00" timeLoss="53.01" rerouteNo="1" devices="tripinfo_121 routing_121" vType="DEFAULT_VEHTYPE" speedFactor="1.03" vaporized=""/>
    <tripinfo id="39" depart="47.00" departLane="108381877#0_0" departPos="5.10" departSpeed="0.00" departDelay="0.20" arrival="289.00" arrivalLane="206020663#2_1" arrivalPos="436.06" arrivalSpeed="15.40" duration="242.00" routeLength="2987.55" waitingTime="32.00" waitingCount="1" stopTime="0.00" timeLoss="52.49" rerouteNo="1" devices="tripinfo_39 routing_39" vType="DEFAULT_VEHTYPE" speedFactor="0.96" vaporized=""/>
    <tripinfo id="1" depart="2.00" departLane="108381877#0_0" departPos="5.10" departSpeed="0.00" departDelay="0.80" arrival="290.00" arrivalLane="206020663#2_0" arrivalPos="436.06" arrivalSpeed="14.51" duration="288.00" routeLength="2987.55" waitingTime="73.00" waitingCount="1" stopTime="0.00" timeLoss="94.86" rerouteNo="1" devices="tripinfo_1 routing_1" vType="DEFAULT_VEHTYPE" speedFactor="0.94" vaporized=""/>
    <tripinfo id="6" depart="8.00" departLane="-243756780_0" departPos="5.10" departSpeed="0.00" departDelay="0.80" arrival="299.00" arrivalLane="194455230#0_0" arrivalPos="24.91" arrivalSpeed="14.21" duration="291.00" routeLength="2762.90" waitingTime="70.00" waitingCount="3" stopTime="0.00" timeLoss="98.71" rerouteNo="1" devices="tripinfo_6 routing_6" vType="DEFAULT_VEHTYPE" speedFactor="1.05" vaporized=""/>
    <tripinfo id="114" depart="137.00" departLane="1000260590#0_0" departPos="5.10" departSpeed="0.00" departDelay="0.20" arrival="299.00" arrivalLane="982306344#0_0" arrivalPos="520.72" arrivalSpeed="12.05" duration="162.00" routeLength="1817.45" waitingTime="22.00" waitingCount="1" stopTime="0.00" timeLoss="39.36" rerouteNo="1" devices="tripinfo_114 routing_114" vType="DEFAULT_VEHTYPE" speedFactor="0.95" vaporized=""/>
    <tripinfo id="184" depart="221.00" departLane="-243756780_0" departPos="5.10" departSpeed="0.00" departDelay="0.20" arrival="299.00" arrivalLane="669763272_0" arrivalPos="31.34" arrivalSpeed="13.20" duration="78.00" routeLength="1068.84" waitingTime="0.00" waitingCount="0" stopTime="0.00" timeLoss="8.88" rerouteNo="1" devices="tripinfo_184 routing_184" vType="DEFAULT_VEHTYPE" speedFactor="1.03" vaporized=""/>
    <tripinfo id="18" depart="23.00" departLane="667739179_0" departPos="5.10" departSpeed="0.00" departDelay="1.40" arrival="303.00" arrivalLane="269541313#0_0" arrivalPos="99.33" arrivalSpeed="14.92" duration="280.00" routeLength="2932.95" waitingTime="93.00" waitingCount="1" stopTime="0.00" timeLoss="116.08" rerouteNo="1" devices="tripinfo_18 routing_18" vType="DEFAULT_VEHTYPE" speedFactor="1.09" vaporized=""/>
    <tripinfo id="143" depart="172.00" departLane="667739179_0" departPos="5.10" departSpeed="0.00" departDelay="0.40" arrival="305.00" arrivalLane="-23580688#1_0" arrivalPos="330.93" arrivalSpeed="15.35" duration="133.00" routeLength="1386.45" waitingTime="27.00" waitingCount="2" stopTime="0.00" timeLoss="46.54" rerouteNo="1" devices="tripinfo_143 routing_143" vType="DEFAULT_VEHTYPE" speedFactor="1.11" vaporized=""/>
    <tripinfo id="154" depart="185.00" departLane="667739179_0" departPos="5.10" departSpeed="0.00" departDelay="0.20" arrival="306.00" arrivalLane="669763272_0" arrivalPos="31.34" arrivalSpeed="14.18" duration="121.00" routeLength="1251.19" waitingTime="28.00" waitingCount="1" stopTime="0.00" timeLoss="48.06" rerouteNo="1" devices="tripinfo_154 routing_154" vType="DEFAULT_VEHTYPE" speedFactor="1.06" vaporized=""/>
    <tripinfo id="199" depart="239.00" departLane="294600266#0_0" departPos="5.10" departSpeed="0.00" departDelay="0.20" arrival="307.00" arrivalLane="235427380#0_0" arrivalPos="50.37" arrivalSpeed="16.54" duration="68.00" routeLength="943.96" waitingTime="0.00" waitingCount="0" stopTime="0.00" timeLoss="9.70" rerouteNo="1" devices="tripinfo_199 routing_199" vType="DEFAULT_VEHTYPE" speedFactor="1.00" vaporized=""/>
    <tripinfo id="166" depart="203.00" departLane="667739179_0" departPos="5.10" departSpeed="0.00" departDelay="3.80" arrival="308.00" arrivalLane="-23580688#1_0" arrivalPos="330.93" arrivalSpeed="13.69" duration="105.00" routeLength="1386.45" waitingTime="0.00" waitingCount="0" stopTime="0.00" timeLoss="13.01" rerouteNo="1" devices="tripinfo_166 routing_166" vType="DEFAULT_VEHTYPE" speedFactor="1.05" vaporized=""/>
    <tripinfo id="161" depart="194.00" departLane="667739179_0" departPos="5.10" departSpeed="0.00" departDelay="0.80" arrival="309.00" arrivalLane="669763272_0" arrivalPos="31.34" arrivalSpeed="13.63" duration="115.00" routeLength="1251.19" waitingTime="23.00" waitingCount="2" stopTime="0.00" timeLoss="42.13" rerouteNo="1" devices="tripinfo_161 routing_161" vType="DEFAULT_VEHTYPE" speedFactor="1.06" vaporized=""/>
    <tripinfo id="164" depart="197.00" departLane="667739179_0" departPos="5.10" departSpeed="0.00" departDelay="0.20" arrival="312.00" arrivalLane="669763272_0" arrivalPos="31.34" arrivalSpeed="13.98" duration="115.00" routeLength="1251.19" waitingTime="22.00" waitingCount="1" stopTime="0.00" timeLoss="43.76" rerouteNo="1" devices="tripinfo_164 routing_164" vType="DEFAULT_VEHTYPE" speedFactor="1.08" vaporized=""/>
    <tripinfo id="34" depart="41.00" departLane="160483132#0_0" departPos="5.10" departSpeed="0.00" departDelay="0.20" arrival="313.00" arrivalLane="206020663#2_0" arrivalPos="436.06" arrivalSpeed="14.15" duration="272.00" routeLength="2404.75" waitingTime="44.00" waitingCount="3" stopTime="0.00" timeLoss="73.30" rerouteNo="1" devices="tripinfo_34 routing_34" vType="DEFAULT_VEHTYPE" speedFactor="0.86" vaporized=""/>
    <tripinfo id="64" depart="77.00" departLane="7971104#0_0" departPos="5.10" departSpeed="0.00" departDelay="0.20" arrival="317.00" arrivalLane="669249475#0_2" arrivalPos="131.27" arrivalSpeed="13.98" duration="240.00" routeLength="1638.24" waitingTime="108.00" waitingCount="2" stopTime="0.00" timeLoss="127.72" rerouteNo="1" devices="tripinfo_64 routing_64" vType="DEFAULT_VEHTYPE" speedFactor="1.04" vaporized=""/>
    <tripinfo id="27" depart="33.00" departLane="294600266#0_0" departPos="5.10" departSpeed="0.00" departDelay="0.60" arrival="318.00" arrivalLane="269541313#0_0" arrivalPos="99.33" arrivalSpeed="15.82" duration="285.00" routeLength="4376.73" waitingTime="6.00" waitingCount="1" stopTime="0.00" timeLoss="40.65" rerouteNo="1" devices="tripinfo_27 routing_27" vType="DEFAULT_VEHTYPE" speedFactor="1.16" vaporized=""/>
    <tripinfo id="124" depart="149.00" departLane="294600266#0_0" departPos="5.10" departSpeed="0.00" departDelay="0.20" arrival="319.00" arrivalLane="231916547#0_0" arrivalPos="151.53" arrivalSpeed="17.69" duration="170.00" routeLength="1979.92" waitingTime="27.00" waitingCount="3" stopTime="0.00" timeLoss="56.81" rerouteNo="1" devices="tripinfo_124 routing_124" vType="DEFAULT_VEHTYPE" speedFactor="1.07" vaporized=""/>