<?xml version="1.0" encoding="UTF-8"?>

<!-- generated on 2024-08-31 17:30:59 by Eclipse SUMO sumo Version 1.20.0
<configuration xmlns:xsi="http://www.w3.org/2001/XMLSchema-instance" xsi:noNamespaceSchemaLocation="http://sumo.dlr.de/xsd/sumoConfiguration.xsd">

    <input>
        <net-file value="c:\self\School\Master\Disertation\code\RESCO\resco_benchmark\environments/pantelimon/osm.net.xml.gz"/>
        <route-files value="c:\self\School\Master\Disertation\code\RESCO\resco_benchmark\environments/pantelimon/osm.passenger.trips.xml"/>
        <additional-files value="c:\self\School\Master\Disertation\code\RESCO\resco_benchmark\environments/pantelimon/osm.poly.xml.gz"/>
    </input>

    <output>
        <tripinfo-output value="C:\self\School\Master\Disertation\code\RESCO\results\IDQN-tr0-pantelimon-0-drq-wait\tripinfo_84.xml"/>
        <tripinfo-output.write-unfinished value="true"/>
    </output>

    <processing>
        <ignore-route-errors value="true"/>
        <time-to-teleport value="-1"/>
    </processing>

    <routing>
        <device.rerouting.adaptation-steps value="18"/>
        <device.rerouting.adaptation-interval value="10"/>
    </routing>

    <report>
        <verbose value="true"/>
        <no-warnings value="True"/>
        <duration-log.statistics value="true"/>
        <no-step-log value="True"/>
    </report>

    <traci_server>
        <remote-port value="51234"/>
    </traci_server>

    <random_number>
        <random value="true"/>
    </random_number>

    <gui_only>
        <gui-settings-file value="c:\self\School\Master\Disertation\code\RESCO\resco_benchmark\environments/pantelimon/osm.view.xml"/>
    </gui_only>

</configuration>
-->

<tripinfos xmlns:xsi="http://www.w3.org/2001/XMLSchema-instance" xsi:noNamespaceSchemaLocation="http://sumo.dlr.de/xsd/tripinfo_file.xsd">
    <tripinfo id="3" depart="4.00" departLane="7971104#0_0" departPos="5.10" departSpeed="0.00" departDelay="0.40" arrival="59.00" arrivalLane="-23580688#1_0" arrivalPos="330.93" arrivalSpeed="13.88" duration="55.00" routeLength="689.53" waitingTime="0.00" waitingCount="0" stopTime="0.00" timeLoss="9.39" rerouteNo="1" devices="tripinfo_3 routing_3" vType="DEFAULT_VEHTYPE" speedFactor="1.05" vaporized=""/>
    <tripinfo id="11" depart="14.00" departLane="160483132#0_0" departPos="5.10" departSpeed="0.00" departDelay="0.80" arrival="68.00" arrivalLane="194455230#0_0" arrivalPos="24.91" arrivalSpeed="15.45" duration="54.00" routeLength="712.89" waitingTime="0.00" waitingCount="0" stopTime="0.00" timeLoss="8.24" rerouteNo="1" devices="tripinfo_11 routing_11" vType="DEFAULT_VEHTYPE" speedFactor="1.14" vaporized=""/>
    <tripinfo id="33" depart="40.00" departLane="108381877#0_0" departPos="5.10" departSpeed="0.00" departDelay="0.40" arrival="80.00" arrivalLane="-1299556464_0" arrivalPos="305.41" arrivalSpeed="10.94" duration="40.00" routeLength="412.56" waitingTime="0.00" waitingCount="0" stopTime="0.00" timeLoss="5.29" rerouteNo="1" devices="tripinfo_33 routing_33" vType="DEFAULT_VEHTYPE" speedFactor="0.85" vaporized=""/>
    <tripinfo id="46" depart="56.00" departLane="667739179_0" departPos="5.10" departSpeed="0.00" departDelay="0.80" arrival="120.00" arrivalLane="23499828_0" arrivalPos="213.11" arrivalSpeed="12.24" duration="64.00" routeLength="794.00" waitingTime="0.00" waitingCount="0" stopTime="0.00" timeLoss="7.02" rerouteNo="1" devices="tripinfo_46 routing_46" vType="DEFAULT_VEHTYPE" speedFactor="0.92" vaporized=""/>
    <tripinfo id="7" depart="9.00" departLane="294600266#0_0" departPos="5.10" departSpeed="0.00" departDelay="0.60" arrival="132.00" arrivalLane="236238105#0_0" arrivalPos="603.72" arrivalSpeed="17.01" duration="123.00" routeLength="1359.20" waitingTime="26.00" waitingCount="1" stopTime="0.00" timeLoss="44.07" rerouteNo="1" devices="tripinfo_7 routing_7" vType="DEFAULT_VEHTYPE" speedFactor="1.08" vaporized=""/>
    <tripinfo id="16" depart="20.00" departLane="252334765#0_0" departPos="5.10" departSpeed="0.00" departDelay="0.80" arrival="134.00" arrivalLane="982306344#0_0" arrivalPos="520.72" arrivalSpeed="13.05" duration="114.00" routeLength="1256.80" waitingTime="3.00" waitingCount="1" stopTime="0.00" timeLoss="17.78" rerouteNo="1" devices="tripinfo_16 routing_16" vType="DEFAULT_VEHTYPE" speedFactor="0.95" vaporized=""/>
    <tripinfo id="97" depart="117.00" departLane="239925116#0_0" departPos="5.10" departSpeed="0.00" departDelay="0.60" arrival="151.00" arrivalLane="669763272_0" arrivalPos="31.34" arrivalSpeed="15.81" duration="34.00" routeLength="430.64" waitingTime="0.00" waitingCount="0" stopTime="0.00" timeLoss="8.69" rerouteNo="1" devices="tripinfo_97 routing_97" vType="DEFAULT_VEHTYPE" speedFactor="1.17" vaporized=""/>
    <tripinfo id="53" depart="64.00" departLane="-4049077#7_0" departPos="5.10" departSpeed="0.00" departDelay="0.40" arrival="162.00" arrivalLane="235427380#0_0" arrivalPos="50.37" arrivalSpeed="17.37" duration="98.00" routeLength="1593.09" waitingTime="0.00" waitingCount="0" stopTime="0.00" timeLoss="6.91" rerouteNo="1" devices="tripinfo_53 routing_53" vType="DEFAULT_VEHTYPE" speedFactor="1.06" vaporized=""/>
    <tripinfo id="55" depart="66.00" departLane="7971104#0_0" departPos="5.10" departSpeed="0.00" departDelay="0.00" arrival="165.00" arrivalLane="206020663#2_0" arrivalPos="436.06" arrivalSpeed="16.12" duration="99.00" routeLength="1344.92" waitingTime="0.00" waitingCount="0" stopTime="0.00" timeLoss="10.66" rerouteNo="1" devices="tripinfo_55 routing_55" vType="DEFAULT_VEHTYPE" speedFactor="1.01" vaporized=""/>
    <tripinfo id="99" depart="119.00" departLane="853327081_0" departPos="5.10" departSpeed="0.00" departDelay="0.20" arrival="172.00" arrivalLane="669249475#0_0" arrivalPos="131.27" arrivalSpeed="14.99" duration="53.00" routeLength="687.37" waitingTime="0.00" waitingCount="0" stopTime="0.00" timeLoss="7.06" rerouteNo="1" devices="tripinfo_99 routing_99" vType="DEFAULT_VEHTYPE" speedFactor="1.11" vaporized=""/>
    <tripinfo id="42" depart="51.00" departLane="23580688#0_0" departPos="5.10" departSpeed="0.00" departDelay="0.60" arrival="186.00" arrivalLane="206020663#2_0" arrivalPos="436.06" arrivalSpeed="14.29" duration="135.00" routeLength="1318.57" waitingTime="16.00" waitingCount="1" stopTime="0.00" timeLoss="31.27" rerouteNo="1" devices="tripinfo_42 routing_42" vType="DEFAULT_VEHTYPE" speedFactor="0.87" vaporized=""/>
    <tripinfo id="14" depart="17.00" departLane="667739179_0" departPos="5.10" departSpeed="0.00" departDelay="0.20" arrival="198.00" arrivalLane="269541313#0_0" arrivalPos="99.33" arrivalSpeed="14.15" duration="181.00" routeLength="2932.95" waitingTime="0.00" waitingCount="0" stopTime="0.00" timeLoss="19.64" rerouteNo="1" devices="tripinfo_14 routing_14" vType="DEFAULT_VEHTYPE" speedFactor="1.11" vaporized=""/>
    <tripinfo id="35" depart="42.00" departLane="1000260590#0_0" departPos="5.10" departSpeed="0.00" departDelay="0.00" arrival="203.00" arrivalLane="982306344#0_0" arrivalPos="520.72" arrivalSpeed="12.07" duration="161.00" routeLength="1817.45" waitingTime="18.00" waitingCount="1" stopTime="0.00" timeLoss="34.40" rerouteNo="1" devices="tripinfo_35 routing_35" vType="DEFAULT_VEHTYPE" speedFactor="0.92" vaporized=""/>
    <tripinfo id="47" depart="57.00" departLane="-243756780_0" departPos="5.10" departSpeed="0.00" departDelay="0.60" arrival="206.00" arrivalLane="23499828_0" arrivalPos="213.11" arrivalSpeed="14.03" duration="149.00" routeLength="2085.76" waitingTime="1.00" waitingCount="1" stopTime="0.00" timeLoss="21.07" rerouteNo="1" devices="tripinfo_47 routing_47" vType="DEFAULT_VEHTYPE" speedFactor="1.05" vaporized=""/>
    <tripinfo id="93" depart="112.00" departLane="7971104#0_0" departPos="5.10" departSpeed="0.00" departDelay="0.40" arrival="209.00" arrivalLane="206020663#2_0" arrivalPos="436.06" arrivalSpeed="16.81" duration="97.00" routeLength="1344.92" waitingTime="0.00" waitingCount="0" stopTime="0.00" timeLoss="9.86" rerouteNo="1" devices="tripinfo_93 routing_93" vType="DEFAULT_VEHTYPE" speedFactor="1.02" vaporized=""/>
    <tripinfo id="142" depart="171.00" departLane="239925116#0_0" departPos="5.10" departSpeed="0.00" departDelay="0.60" arrival="211.00" arrivalLane="669763272_0" arrivalPos="31.34" arrivalSpeed="16.09" duration="40.00" routeLength="430.64" waitingTime="2.00" waitingCount="1" stopTime="0.00" timeLoss="14.92" rerouteNo="1" devices="tripinfo_142 routing_142" vType="DEFAULT_VEHTYPE" speedFactor="1.18" vaporized=""/>
    <tripinfo id="31" depart="38.00" departLane="252334765#0_0" departPos="5.10" departSpeed="0.00" departDelay="0.80" arrival="215.00" arrivalLane="4049077#1_0" arrivalPos="49.21" arrivalSpeed="15.77" duration="177.00" routeLength="1888.62" waitingTime="41.00" waitingCount="3" stopTime="0.00" timeLoss="68.95" rerouteNo="1" devices="tripinfo_31 routing_31" vType="DEFAULT_VEHTYPE" speedFactor="1.14" vaporized=""/>
    <tripinfo id="106" depart="128.00" departLane="239925116#0_0" departPos="5.10" departSpeed="0.00" departDelay="0.80" arrival="217.00" arrivalLane="23499828_0" arrivalPos="213.11" arrivalSpeed="13.60" duration="89.00" routeLength="1224.27" waitingTime="0.00" waitingCount="0" stopTime="0.00" timeLoss="10.14" rerouteNo="1" devices="tripinfo_106 routing_106" vType="DEFAULT_VEHTYPE" speedFactor="1.02" vaporized=""/>
    <tripinfo id="71" depart="86.00" departLane="108381877#0_0" departPos="5.10" departSpeed="0.00" departDelay="0.80" arrival="218.00" arrivalLane="669763272_0" arrivalPos="31.34" arrivalSpeed="14.51" duration="132.00" routeLength="2043.17" waitingTime="0.00" waitingCount="0" stopTime="0.00" timeLoss="16.25" rerouteNo="1" devices="tripinfo_71 routing_71" vType="DEFAULT_VEHTYPE" speedFactor="1.10" vaporized=""/>
    <tripinfo id="67" depart="81.00" departLane="-4049077#7_0" departPos="5.10" departSpeed="0.00" departDelay="0.60" arrival="219.00" arrivalLane="235427380#0_0" arrivalPos="50.37" arrivalSpeed="17.60" duration="138.00" routeLength="1593.09" waitingTime="37.00" waitingCount="1" stopTime="0.00" timeLoss="48.47" rerouteNo="1" devices="tripinfo_67 routing_67" vType="DEFAULT_VEHTYPE" speedFactor="1.08" vaporized=""/>
    <tripinfo id="81" depart="98.00" departLane="108381877#0_0" departPos="5.10" departSpeed="0.00" departDelay="0.80" arrival="219.00" arrivalLane="669763272_0" arrivalPos="31.34" arrivalSpeed="16.08" duration="121.00" routeLength="2041.42" waitingTime="0.00" waitingCount="0" stopTime="0.00" timeLoss="15.39" rerouteNo="1" devices="tripinfo_81 routing_81" vType="DEFAULT_VEHTYPE" speedFactor="1.20" vaporized=""/>
    <tripinfo id="18" depart="23.00" departLane="667739179_0" departPos="5.10" departSpeed="0.00" departDelay="1.40" arrival="226.00" arrivalLane="269541313#0_0" arrivalPos="99.33" arrivalSpeed="14.54" duration="203.00" routeLength="2932.95" waitingTime="19.00" waitingCount="1" stopTime="0.00" timeLoss="41.90" rerouteNo="1" devices="tripinfo_18 routing_18" vType="DEFAULT_VEHTYPE" speedFactor="1.11" vaporized=""/>
    <tripinfo id="95" depart="114.00" departLane="23580688#0_0" departPos="5.10" departSpeed="0.00" departDelay="0.00" arrival="226.00" arrivalLane="206020663#2_0" arrivalPos="436.06" arrivalSpeed="17.48" duration="112.00" routeLength="1318.57" waitingTime="12.00" waitingCount="1" stopTime="0.00" timeLoss="28.94" rerouteNo="1" devices="tripinfo_95 routing_95" vType="DEFAULT_VEHTYPE" speedFactor="1.09" vaporized=""/>
    <tripinfo id="15" depart="20.00" departLane="667739179_0" departPos="5.10" departSpeed="0.00" departDelay="2.00" arrival="230.00" arrivalLane="669013752#1_1" arrivalPos="275.29" arrivalSpeed="14.95" duration="210.00" routeLength="1458.48" waitingTime="81.00" waitingCount="3" stopTime="0.00" timeLoss="106.03" rerouteNo="1" devices="tripinfo_15 routing_15" vType="DEFAULT_VEHTYPE" speedFactor="0.93" vaporized=""/>
    <tripinfo id="32" depart="39.00" departLane="667739179_0" departPos="5.10" departSpeed="0.00" departDelay="0.60" arrival="233.00" arrivalLane="669013752#1_1" arrivalPos="275.29" arrivalSpeed="14.14" duration="194.00" routeLength="1458.48" waitingTime="56.00" waitingCount="3" stopTime="0.00" timeLoss="83.50" rerouteNo="1" devices="tripinfo_32 routing_32" vType="DEFAULT_VEHTYPE" speedFactor="0.88" vaporized=""/>
    <tripinfo id="1" depart="2.00" departLane="108381877#0_0" departPos="5.10" departSpeed="0.00" departDelay="0.80" arrival="235.00" arrivalLane="206020663#2_0" arrivalPos="436.06" arrivalSpeed="17.19" duration="233.00" routeLength="2987.55" waitingTime="45.00" waitingCount="1" stopTime="0.00" timeLoss="67.24" rerouteNo="1" devices="tripinfo_1 routing_1" vType="DEFAULT_VEHTYPE" speedFactor="1.10" vaporized=""/>
    <tripinfo id="8" depart="10.00" departLane="108381877#0_0" departPos="5.10" departSpeed="0.00" departDelay="0.40" arrival="236.00" arrivalLane="269541313#0_0" arrivalPos="99.33" arrivalSpeed="10.41" duration="226.00" routeLength="2557.56" waitingTime="0.00" waitingCount="0" stopTime="0.00" timeLoss="18.80" rerouteNo="1" devices="tripinfo_8 routing_8" vType="DEFAULT_VEHTYPE" speedFactor="0.76" vaporized=""/>
    <tripinfo id="50" depart="60.00" departLane="-243756780_0" departPos="5.10" departSpeed="0.00" departDelay="0.00" arrival="236.00" arrivalLane="669013752#1_1" arrivalPos="275.29" arrivalSpeed="15.66" duration="176.00" routeLength="1312.17" waitingTime="51.00" waitingCount="3" stopTime="0.00" timeLoss="84.31" rerouteNo="1" devices="tripinfo_50 routing_50" vType="DEFAULT_VEHTYPE" speedFactor="1.01" vaporized=""/>
    <tripinfo id="10" depart="14.00" departLane="667739179_0" departPos="5.10" departSpeed="0.00" departDelay="2.00" arrival="241.00" arrivalLane="4049077#1_0" arrivalPos="49.21" arrivalSpeed="15.86" duration="227.00" routeLength="3228.71" waitingTime="23.00" waitingCount="1" stopTime="0.00" timeLoss="47.72" rerouteNo="1" devices="tripinfo_10 routing_10" vType="DEFAULT_VEHTYPE" speedFactor="1.19" vaporized=""/>
    <tripinfo id="52" depart="63.00" departLane="108381877#0_0" departPos="5.10" departSpeed="0.00" departDelay="0.60" arrival="241.00" arrivalLane="269541313#0_0" arrivalPos="99.33" arrivalSpeed="12.53" duration="178.00" routeLength="2557.56" waitingTime="0.00" waitingCount="0" stopTime="0.00" timeLoss="17.45" rerouteNo="1" devices="tripinfo_52 routing_52" vType="DEFAULT_VEHTYPE" speedFactor="0.98" vaporized=""/>
    <tripinfo id="21" depart="26.00" departLane="108381877#0_0" departPos="5.10" departSpeed="0.00" departDelay="0.80" arrival="243.00" arrivalLane="231916547#0_0" arrivalPos="151.53" arrivalSpeed="15.49" duration="217.00" routeLength="2648.15" waitingTime="14.00" waitingCount="2" stopTime="0.00" timeLoss="38.57" rerouteNo="1" devices="tripinfo_21 routing_21" vType="DEFAULT_VEHTYPE" speedFactor="0.99" vaporized=""/>
    <tripinfo id="51" depart="62.00" departLane="294600266#0_0" departPos="5.10" departSpeed="0.00" departDelay="0.80" arrival="244.00" arrivalLane="236238105#0_0" arrivalPos="603.72" arrivalSpeed="17.99" duration="182.00" routeLength="1361.32" waitingTime="84.00" waitingCount="2" stopTime="0.00" timeLoss="106.90" rerouteNo="1" devices="tripinfo_51 routing_51" vType="DEFAULT_VEHTYPE" speedFactor="1.12" vaporized=""/>
    <tripinfo id="133" depart="160.00" departLane="286193209_0" departPos="5.10" departSpeed="0.00" departDelay="0.40" arrival="250.00" arrivalLane="982306344#0_0" arrivalPos="520.72" arrivalSpeed="13.35" duration="90.00" routeLength="1010.88" waitingTime="4.00" waitingCount="1" stopTime="0.00" timeLoss="18.57" rerouteNo="1" devices="tripinfo_133 routing_133" vType="DEFAULT_VEHTYPE" speedFactor="0.96" vaporized=""/>
    <tripinfo id="41" depart="50.00" departLane="286193209_0" departPos="5.10" departSpeed="0.00" departDelay="0.80" arrival="251.00" arrivalLane="669763272_0" arrivalPos="31.34" arrivalSpeed="16.53" duration="201.00" routeLength="3162.19" waitingTime="11.00" waitingCount="1" stopTime="0.00" timeLoss="32.73" rerouteNo="1" devices="tripinfo_41 routing_41" vType="DEFAULT_VEHTYPE" speedFactor="1.22" vaporized=""/>
    <tripinfo id="9" depart="11.00" departLane="667739179_0" departPos="5.10" departSpeed="0.00" departDelay="0.20" arrival="253.00" arrivalLane="-1299556464_0" arrivalPos="305.41" arrivalSpeed="11.19" duration="242.00" routeLength="3244.03" waitingTime="0.00" waitingCount="0" stopTime="0.00" timeLoss="14.54" rerouteNo="1" devices="tripinfo_9 routing_9" vType="DEFAULT_VEHTYPE" speedFactor="0.87" vaporized=""/>
    <tripinfo id="136" depart="164.00" departLane="294600266#0_0" departPos="5.10" departSpeed="0.00" departDelay="0.80" arrival="254.00" arrivalLane="982306344#0_0" arrivalPos="520.72" arrivalSpeed="17.00" duration="90.00" routeLength="1290.39" waitingTime="2.00" waitingCount="1" stopTime="0.00" timeLoss="21.38" rerouteNo="1" devices="tripinfo_136 routing_136" vType="DEFAULT_VEHTYPE" speedFactor="1.28" vaporized=""/>
    <tripinfo id="23" depart="30.00" departLane="-4049077#7_0" departPos="5.10" departSpeed="0.00" departDelay="2.40" arrival="256.00" arrivalLane="206020663#2_0" arrivalPos="436.06" arrivalSpeed="17.08" duration="226.00" routeLength="3214.22" waitingTime="0.00" waitingCount="0" stopTime="0.00" timeLoss="22.52" rerouteNo="1" devices="tripinfo_23 routing_23" vType="DEFAULT_VEHTYPE" speedFactor="1.04" vaporized=""/>
    <tripinfo id="2" depart="3.00" departLane="34774628#0_0" departPos="5.10" departSpeed="0.00" departDelay="0.60" arrival="264.00" arrivalLane="4049077#1_0" arrivalPos="49.21" arrivalSpeed="10.86" duration="261.00" routeLength="2901.67" waitingTime="0.00" waitingCount="0" stopTime="0.00" timeLoss="17.38" rerouteNo="1" devices="tripinfo_2 routing_2" vType="DEFAULT_VEHTYPE" speedFactor="0.81" vaporized=""/>
    <tripinfo id="118" depart="142.00" departLane="7971104#0_0" departPos="5.10" departSpeed="0.00" departDelay="0.40" arrival="264.00" arrivalLane="206020663#2_0" arrivalPos="436.06" arrivalSpeed="13.84" duration="122.00" routeLength="1344.92" waitingTime="6.00" waitingCount="2" stopTime="0.00" timeLoss="23.76" rerouteNo="1" devices="tripinfo_118 routing_118" vType="DEFAULT_VEHTYPE" speedFactor="0.91" vaporized=""/>
    <tripinfo id="154" depart="185.00" departLane="667739179_0" departPos="5.10" departSpeed="0.00" departDelay="0.20" arrival="264.00" arrivalLane="669763272_0" arrivalPos="31.34" arrivalSpeed="14.55" duration="79.00" routeLength="1251.19" waitingTime="0.00" waitingCount="0" stopTime="0.00" timeLoss="7.78" rerouteNo="1" devices="tripinfo_154 routing_154" vType="DEFAULT_VEHTYPE" speedFactor="1.09" vaporized=""/>
    <tripinfo id="45" depart="56.00" departLane="-4049077#7_0" departPos="5.10" departSpeed="0.00" departDelay="2.00" arrival="269.00" arrivalLane="269541313#0_0" arrivalPos="99.33" arrivalSpeed="12.56" duration="213.00" routeLength="2784.23" waitingTime="0.00" waitingCount="0" stopTime="0.00" timeLoss="20.86" rerouteNo="1" devices="tripinfo_45 routing_45" vType="DEFAULT_VEHTYPE" speedFactor="0.98" vaporized=""/>
    <tripinfo id="144" depart="173.00" departLane="23580688#0_0" departPos="5.10" departSpeed="0.00" departDelay="0.20" arrival="273.00" arrivalLane="206020663#2_0" arrivalPos="436.06" arrivalSpeed="18.19" duration="100.00" routeLength="1318.57" waitingTime="3.00" waitingCount="1" stopTime="0.00" timeLoss="17.88" rerouteNo="1" devices="tripinfo_144 routing_144" vType="DEFAULT_VEHTYPE" speedFactor="1.11" vaporized=""/>
    <tripinfo id="6" depart="8.00" departLane="-243756780_0" departPos="5.10" departSpeed="0.00" departDelay="0.80" arrival="274.00" arrivalLane="194455230#0_0" arrivalPos="24.91" arrivalSpeed="14.13" duration="266.00" routeLength="2762.90" waitingTime="53.00" waitingCount="3" stopTime="0.00" timeLoss="83.11" rerouteNo="1" devices="tripinfo_6 routing_6" vType="DEFAULT_VEHTYPE" speedFactor="1.10" vaporized=""/>
    <tripinfo id="96" depart="116.00" departLane="108381877#0_0" departPos="5.10" departSpeed="0.00" departDelay="0.80" arrival="275.00" arrivalLane="669763272_0" arrivalPos="31.34" arrivalSpeed="12.14" duration="159.00" routeLength="2043.17" waitingTime="0.00" waitingCount="0" stopTime="0.00" timeLoss="20.47" rerouteNo="1" devices="tripinfo_96 routing_96" vType="DEFAULT_VEHTYPE" speedFactor="0.91" vaporized=""/>
    <tripinfo id="72" depart="87.00" departLane="23580688#0_0" departPos="5.10" departSpeed="0.00" departDelay="0.60" arrival="276.00" arrivalLane="194455230#0_1" arrivalPos="24.91" arrivalSpeed="13.90" duration="189.00" routeLength="2199.13" waitingTime="14.00" waitingCount="2" stopTime="0.00" timeLoss="41.49" rerouteNo="1" devices="tripinfo_72 routing_72" vType="DEFAULT_VEHTYPE" speedFactor="1.09" vaporized=""/>
    <tripinfo id="80" depart="96.00" departLane="-243756780_0" departPos="5.10" departSpeed="0.00" departDelay="0.00" arrival="276.00" arrivalLane="269541313#0_0" arrivalPos="99.33" arrivalSpeed="13.29" duration="180.00" routeLength="2750.60" waitingTime="0.00" waitingCount="0" stopTime="0.00" timeLoss="14.56" rerouteNo="1" devices="tripinfo_80 routing_80" vType="DEFAULT_VEHTYPE" speedFactor="1.04" vaporized=""/>
    <tripinfo id="161" depart="194.00" departLane="667739179_0" departPos="5.10" departSpeed="0.00" departDelay="0.80" arrival="277.00" arrivalLane="669763272_0" arrivalPos="31.34" arrivalSpeed="14.43" duration="83.00" routeLength="1251.19" waitingTime="0.00" waitingCount="0" stopTime="0.00" timeLoss="11.52" rerouteNo="1" devices="tripinfo_161 routing_161" vType="DEFAULT_VEHTYPE" speedFactor="1.09" vaporized=""/>
    <tripinfo id="211" depart="254.00" departLane="1000260590#0_0" departPos="5.10" departSpeed="0.00" departDelay="0.80" arrival="281.00" arrivalLane="4049077#1_0" arrivalPos="49.21" arrivalSpeed="8.98" duration="27.00" routeLength="227.16" waitingTime="0.00" waitingCount="0" stopTime="0.00" timeLoss="5.76" rerouteNo="1" devices="tripinfo_211 routing_211" vType="DEFAULT_VEHTYPE" speedFactor="0.73" vaporized=""/>
    <tripinfo id="25" depart="30.00" departLane="23580688#0_0" departPos="5.10" departSpeed="0.00" departDelay="0.00" arrival="282.00" arrivalLane="194455230#0_0" arrivalPos="24.91" arrivalSpeed="12.24" duration="252.00" routeLength="2199.13" waitingTime="45.00" waitingCount="2" stopTime="0.00" timeLoss="70.60" rerouteNo="1" devices="tripinfo_25 routing_25" vType="DEFAULT_VEHTYPE" speedFactor="0.89" vaporized=""/>
    <tripinfo id="88" depart="106.00" departLane="-4049077#7_0" departPos="5.10" departSpeed="0.00" departDelay="0.40" arrival="283.00" arrivalLane="235427380#0_0" arrivalPos="50.37" arrivalSpeed="14.83" duration="177.00" routeLength="1593.09" waitingTime="52.00" waitingCount="2" stopTime="0.00" timeLoss="73.93" rerouteNo="1" devices="tripinfo_88 routing_88" vType="DEFAULT_VEHTYPE" speedFactor="0.94" vaporized=""/>
    <tripinfo id="201" depart="242.00" departLane="239925116#0_0" departPos="5.10" departSpeed="0.00" departDelay="0.80" arrival="285.00" arrivalLane="669763272_0" arrivalPos="31.34" arrivalSpeed="12.66" duration="43.00" routeLength="430.64" waitingTime="0.00" waitingCount="0" stopTime="0.00" timeLoss="13.05" rerouteNo="1" devices="tripinfo_201 routing_201" vType="DEFAULT_VEHTYPE" speedFactor="0.99" vaporized=""/>
    <tripinfo id="114" depart="137.00" departLane="1000260590#0_0" departPos="5.10" departSpeed="0.00" departDelay="0.20" arrival="286.00" arrivalLane="982306344#0_0" arrivalPos="520.72" arrivalSpeed="11.26" duration="149.00" routeLength="1817.45" waitingTime="0.00" waitingCount="0" stopTime="0.00" timeLoss="16.90" rerouteNo="1" devices="tripinfo_114 routing_114" vType="DEFAULT_VEHTYPE" speedFactor="0.88" vaporized=""/>
    <tripinfo id="94" depart="113.00" departLane="1000260590#0_0" departPos="5.10" departSpeed="0.00" departDelay="0.20" arrival="287.00" arrivalLane="235427380#0_0" arrivalPos="50.37" arrivalSpeed="13.21" duration="174.00" routeLength="1672.31" waitingTime="38.00" waitingCount="2" stopTime="0.00" timeLoss="57.16" rerouteNo="1" devices="tripinfo_94 routing_94" vType="DEFAULT_VEHTYPE" speedFactor="0.86" vaporized=""/>
    <tripinfo id="44" depart="53.00" departLane="-4049077#7_0" departPos="5.10" departSpeed="0.00" departDelay="0.20" arrival="288.00" arrivalLane="-1299556464_0" arrivalPos="305.41" arrivalSpeed="12.72" duration="235.00" routeLength="3094.61" waitingTime="1.00" waitingCount="1" stopTime="0.00" timeLoss="22.47" rerouteNo="1" devices="tripinfo_44 routing_44" vType="DEFAULT_VEHTYPE" speedFactor="0.98" vaporized=""/>
    <tripinfo id="126" depart="152.00" departLane="-4049077#7_0" departPos="5.10" departSpeed="0.00" departDelay="0.80" arrival="288.00" arrivalLane="235427380#0_0" arrivalPos="50.37" arrivalSpeed="16.15" duration="136.00" routeLength="1593.09" waitingTime="16.00" waitingCount="2" stopTime="0.00" timeLoss="41.13" rerouteNo="1" devices="tripinfo_126 routing_126" vType="DEFAULT_VEHTYPE" speedFactor="1.02" vaporized=""/>
    <tripinfo id="22" depart="27.00" departLane="-4049077#7_0" departPos="5.10" departSpeed="0.00" departDelay="0.60" arrival="290.00" arrivalLane="206020663#2_1" arrivalPos="436.06" arrivalSpeed="14.95" duration="263.00" routeLength="3214.22" waitingTime="12.00" waitingCount="1" stopTime="0.00" timeLoss="32.78" rerouteNo="1" devices="tripinfo_22 routing_22" vType="DEFAULT_VEHTYPE" speedFactor="0.91" vaporized=""/>
    <tripinfo id="39" depart="47.00" departLane="108381877#0_0" departPos="5.10" departSpeed="0.00" departDelay="0.20" arrival="290.00" arrivalLane="206020663#2_0" arrivalPos="436.06" arrivalSpeed="14.35" duration="243.00" routeLength="2987.55" waitingTime="21.00" waitingCount="1" stopTime="0.00" timeLoss="44.35" rerouteNo="1" devices="tripinfo_39 routing_39" vType="DEFAULT_VEHTYPE" speedFactor="0.91" vaporized=""/>
    <tripinfo id="138" depart="168.00" departLane="-4049077#7_0" departPos="5.10" departSpeed="0.00" departDelay="2.40" arrival="292.00" arrivalLane="236238105#0_0" arrivalPos="603.72" arrivalSpeed="17.14" duration="124.00" routeLength="1829.14" waitingTime="5.00" waitingCount="1" stopTime="0.00" timeLoss="18.30" rerouteNo="1" devices="tripinfo_138 routing_138" vType="DEFAULT_VEHTYPE" speedFactor="1.05" vaporized=""/>
    <tripinfo id="57" depart="69.00" departLane="7971104#0_0" departPos="5.10" departSpeed="0.00" departDelay="0.60" arrival="295.00" arrivalLane="669763272_0" arrivalPos="31.34" arrivalSpeed="11.10" duration="226.00" routeLength="1685.92" waitingTime="69.00" waitingCount="2" stopTime="0.00" timeLoss="92.80" rerouteNo="1" devices="tripinfo_57 routing_57" vType="DEFAULT_VEHTYPE" speedFactor="0.84" vaporized=""/>
    <tripinfo id="19" depart="23.00" departLane="7971104#0_0" departPos="5.10" departSpeed="0.00" departDelay="0.20" arrival="300.00" arrivalLane="269541313#0_0" arrivalPos="99.33" arrivalSpeed="12.69" duration="277.00" routeLength="3367.68" waitingTime="24.00" waitingCount="2" stopTime="0.00" timeLoss="51.08" rerouteNo="1" devices="tripinfo_19 routing_19" vType="DEFAULT_VEHTYPE" speedFactor="0.94" vaporized=""/>
    <tripinfo id="79" depart="95.00" departLane="108381877#0_0" departPos="5.10" departSpeed="0.00" departDelay="0.20" arrival="303.00" arrivalLane="206020663#2_0" arrivalPos="436.06" arrivalSpeed="16.18" duration="208.00" routeLength="2987.55" waitingTime="4.00" waitingCount="1" stopTime="0.00" timeLoss="24.64" rerouteNo="1" devices="tripinfo_79 routing_79" vType="DEFAULT_VEHTYPE" speedFactor="0.99" vaporized=""/>
    <tripinfo id="124" depart="149.00" departLane="294600266#0_0" departPos="5.10" departSpeed="0.00" departDelay="0.20" arrival="306.00" arrivalLane="231916547#0_0" arrivalPos="151.53" arrivalSpeed="13.91" duration="157.00" routeLength="1977.33" waitingTime="5.00" waitingCount="1" stopTime="0.00" timeLoss="22.13" rerouteNo="1" devices="tripinfo_124 routing_124" vType="DEFAULT_VEHTYPE" speedFactor="0.89" vaporized=""/>
    <tripinfo id="199" depart="239.00" departLane="294600266#0_0" departPos="5.10" departSpeed="0.00" departDelay="0.20" arrival="306.00" arrivalLane="235427380#0_1" arrivalPos="50.37" arrivalSpeed="17.66" duration="67.00" routeLength="950.00" waitingTime="2.00" waitingCount="1" stopTime="0.00" timeLoss="14.08" rerouteNo="1" devices="tripinfo_199 routing_199" vType="DEFAULT_VEHTYPE" speedFactor="1.10" vaporized=""/>
    <tripinfo id="24" depart="29.00" departLane="286193209_0" departPos="5.10" departSpeed="0.00" departDelay="0.20" arrival="307.00" arrivalLane="23499828_0" arrivalPos="213.11" arrivalSpeed="13.49" duration="278.00" routeLength="3778.85" waitingTime="20.00" waitingCount="1" stopTime="0.00" timeLoss="39.43" rerouteNo="1" devices="tripinfo_24 routing_24" vType="DEFAULT_VEHTYPE" speedFactor="1.01" vaporized=""/>
    <tripinfo id="125" depart="150.00" departLane="160483132#0_0" departPos="5.10" departSpeed="0.00" departDelay="0.00" arrival="309.00" arrivalLane="669013752#1_0" arrivalPos="275.29" arrivalSpeed="16.88" duration="159.00" routeLength="1586.68" waitingTime="36.00" waitingCount="1" stopTime="0.00" timeLoss="52.11" rerouteNo="1" devices="tripinfo_125 routing_125" vType="DEFAULT_VEHTYPE" speedFactor="1.06" vaporized=""/>
    <tripinfo id="38" depart="47.00" departLane="7971104#0_0" departPos="5.10" departSpeed="0.00" departDelay="1.40" arrival="311.00" arrivalLane="235427380#0_0" arrivalPos="50.37" arrivalSpeed="16.68" duration="264.00" routeLength="3156.71" waitingTime="48.00" waitingCount="2" stopTime="0.00" timeLoss="78.01" rerouteNo="1" devices="tripinfo_38 routing_38" vType="DEFAULT_VEHTYPE" speedFactor="1.02" vaporized=""/>
    <tripinfo id="130" depart="156.00" departLane="7971104#0_0" departPos="5.10" departSpeed="0.00" departDelay="0.00" arrival="315.00" arrivalLane="669763272_0" arrivalPos="31.34" arrivalSpeed="10.39" duration="159.00" routeLength="1685.92" waitingTime="0.00" waitingCount="0" stopTime="0.00" timeLoss="13.74" rerouteNo="1" devices="tripinfo_130 routing_130" vType="DEFAULT_VEHTYPE" speedFactor="0.77" vaporized=""/>