<?xml version="1.0" encoding="UTF-8"?>

<!-- generated on 2024-09-02 16:00:01 by Eclipse SUMO sumo Version 1.20.0
<configuration xmlns:xsi="http://www.w3.org/2001/XMLSchema-instance" xsi:noNamespaceSchemaLocation="http://sumo.dlr.de/xsd/sumoConfiguration.xsd">

    <input>
        <net-file value="c:\self\School\Master\Disertation\code\RESCO\resco_benchmark\environments/unirii/osm.net.xml.gz"/>
        <route-files value="c:\self\School\Master\Disertation\code\RESCO\resco_benchmark\environments/unirii/osm.passenger.trips.xml"/>
        <additional-files value="c:\self\School\Master\Disertation\code\RESCO\resco_benchmark\environments/unirii/osm.poly.xml.gz"/>
    </input>

    <output>
        <tripinfo-output value="C:\self\School\Master\Disertation\code\RESCO\results\IDQN-tr0-unirii-0-drq-wait\tripinfo_22.xml"/>
        <tripinfo-output.write-unfinished value="true"/>
    </output>

    <processing>
        <ignore-route-errors value="true"/>
        <time-to-teleport value="-1"/>
    </processing>

    <routing>
        <device.rerouting.adaptation-steps value="18"/>
        <device.rerouting.adaptation-interval value="10"/>
    </routing>

    <report>
        <verbose value="true"/>
        <no-warnings value="True"/>
        <duration-log.statistics value="true"/>
        <no-step-log value="True"/>
    </report>

    <traci_server>
        <remote-port value="63266"/>
    </traci_server>

    <random_number>
        <random value="true"/>
    </random_number>

    <gui_only>
        <gui-settings-file value="c:\self\School\Master\Disertation\code\RESCO\resco_benchmark\environments/unirii/osm.view.xml"/>
    </gui_only>

</configuration>
-->

<tripinfos xmlns:xsi="http://www.w3.org/2001/XMLSchema-instance" xsi:noNamespaceSchemaLocation="http://sumo.dlr.de/xsd/tripinfo_file.xsd">
    <tripinfo id="7" depart="15.00" departLane="65746828#0_0" departPos="5.10" departSpeed="0.00" departDelay="0.18" arrival="63.00" arrivalLane="218680176#0_1" arrivalPos="98.94" arrivalSpeed="13.34" duration="48.00" routeLength="602.71" waitingTime="0.00" waitingCount="0" stopTime="0.00" timeLoss="5.73" rerouteNo="0" devices="tripinfo_7" vType="DEFAULT_VEHTYPE" speedFactor="1.04" vaporized=""/>
    <tripinfo id="10" depart="23.00" departLane="978867529_0" departPos="5.10" departSpeed="0.00" departDelay="1.82" arrival="64.00" arrivalLane="231177697#0_1" arrivalPos="74.44" arrivalSpeed="12.21" duration="41.00" routeLength="437.06" waitingTime="0.00" waitingCount="0" stopTime="0.00" timeLoss="8.99" rerouteNo="0" devices="tripinfo_10" vType="DEFAULT_VEHTYPE" speedFactor="0.91" vaporized=""/>
    <tripinfo id="15" depart="33.00" departLane="978867529_0" departPos="5.10" departSpeed="0.00" departDelay="1.24" arrival="67.00" arrivalLane="231177697#0_1" arrivalPos="74.44" arrivalSpeed="14.02" duration="34.00" routeLength="437.06" waitingTime="0.00" waitingCount="0" stopTime="0.00" timeLoss="5.31" rerouteNo="0" devices="tripinfo_15" vType="DEFAULT_VEHTYPE" speedFactor="1.02" vaporized=""/>
    <tripinfo id="16" depart="34.00" departLane="256961141#0_0" departPos="5.10" departSpeed="0.00" departDelay="0.12" arrival="90.00" arrivalLane="450554042#0_1" arrivalPos="622.66" arrivalSpeed="18.63" duration="56.00" routeLength="853.74" waitingTime="0.00" waitingCount="0" stopTime="0.00" timeLoss="10.25" rerouteNo="0" devices="tripinfo_16" vType="DEFAULT_VEHTYPE" speedFactor="1.19" vaporized=""/>
    <tripinfo id="32" depart="68.00" departLane="978867529_0" departPos="5.10" departSpeed="0.00" departDelay="0.24" arrival="104.00" arrivalLane="231177697#0_1" arrivalPos="74.44" arrivalSpeed="11.76" duration="36.00" routeLength="437.06" waitingTime="0.00" waitingCount="0" stopTime="0.00" timeLoss="4.64" rerouteNo="0" devices="tripinfo_32" vType="DEFAULT_VEHTYPE" speedFactor="0.91" vaporized=""/>
    <tripinfo id="31" depart="66.00" departLane="65746828#0_0" departPos="5.10" departSpeed="0.00" departDelay="0.35" arrival="115.00" arrivalLane="231177697#0_0" arrivalPos="74.44" arrivalSpeed="12.62" duration="49.00" routeLength="558.79" waitingTime="0.00" waitingCount="0" stopTime="0.00" timeLoss="6.96" rerouteNo="0" devices="tripinfo_31" vType="DEFAULT_VEHTYPE" speedFactor="0.99" vaporized=""/>
    <tripinfo id="0" depart="0.00" departLane="65746828#0_0" departPos="5.10" departSpeed="0.00" departDelay="0.00" arrival="124.00" arrivalLane="-256961141#1_1" arrivalPos="204.72" arrivalSpeed="13.19" duration="124.00" routeLength="931.50" waitingTime="44.00" waitingCount="2" stopTime="0.00" timeLoss="59.22" rerouteNo="0" devices="tripinfo_0" vType="DEFAULT_VEHTYPE" speedFactor="0.95" vaporized=""/>
    <tripinfo id="20" depart="43.00" departLane="666135205#0_0" departPos="5.10" departSpeed="0.00" departDelay="0.65" arrival="130.00" arrivalLane="-256961141#1_0" arrivalPos="204.72" arrivalSpeed="14.19" duration="87.00" routeLength="1068.72" waitingTime="2.00" waitingCount="1" stopTime="0.00" timeLoss="19.29" rerouteNo="0" devices="tripinfo_20" vType="DEFAULT_VEHTYPE" speedFactor="1.07" vaporized=""/>
    <tripinfo id="4" depart="9.00" departLane="-661251539_0" departPos="5.10" departSpeed="0.00" departDelay="0.53" arrival="131.00" arrivalLane="-256961141#1_0" arrivalPos="204.72" arrivalSpeed="9.20" duration="122.00" routeLength="872.91" waitingTime="28.00" waitingCount="1" stopTime="0.00" timeLoss="40.82" rerouteNo="0" devices="tripinfo_4" vType="DEFAULT_VEHTYPE" speedFactor="0.75" vaporized=""/>
    <tripinfo id="30" depart="64.00" departLane="E8_0" departPos="5.10" departSpeed="0.00" departDelay="0.47" arrival="136.00" arrivalLane="226276377#0_1" arrivalPos="135.52" arrivalSpeed="11.46" duration="72.00" routeLength="784.51" waitingTime="0.00" waitingCount="0" stopTime="0.00" timeLoss="6.35" rerouteNo="0" devices="tripinfo_30" vType="DEFAULT_VEHTYPE" speedFactor="0.87" vaporized=""/>
    <tripinfo id="29" depart="63.00" departLane="-226276377#1_0" departPos="5.10" departSpeed="0.00" departDelay="1.59" arrival="144.00" arrivalLane="210831347#0_1" arrivalPos="149.88" arrivalSpeed="14.21" duration="81.00" routeLength="888.52" waitingTime="4.00" waitingCount="1" stopTime="0.00" timeLoss="23.59" rerouteNo="0" devices="tripinfo_29" vType="DEFAULT_VEHTYPE" speedFactor="1.06" vaporized=""/>
    <tripinfo id="3" depart="7.00" departLane="E8_0" departPos="5.10" departSpeed="0.00" departDelay="0.65" arrival="149.00" arrivalLane="-256961141#1_0" arrivalPos="204.72" arrivalSpeed="11.68" duration="142.00" routeLength="832.89" waitingTime="60.00" waitingCount="1" stopTime="0.00" timeLoss="72.53" rerouteNo="0" devices="tripinfo_3" vType="DEFAULT_VEHTYPE" speedFactor="0.87" vaporized=""/>
    <tripinfo id="1" depart="3.00" departLane="-231177697#2_0" departPos="5.10" departSpeed="0.00" departDelay="0.88" arrival="151.00" arrivalLane="210831345#1_1" arrivalPos="264.29" arrivalSpeed="14.74" duration="148.00" routeLength="696.92" waitingTime="91.00" waitingCount="1" stopTime="0.00" timeLoss="102.06" rerouteNo="0" devices="tripinfo_1" vType="DEFAULT_VEHTYPE" speedFactor="1.12" vaporized=""/>
    <tripinfo id="25" depart="53.00" departLane="-661251539_0" departPos="5.10" departSpeed="0.00" departDelay="0.06" arrival="152.00" arrivalLane="153964138#0_1" arrivalPos="337.99" arrivalSpeed="17.04" duration="99.00" routeLength="1239.04" waitingTime="1.00" waitingCount="1" stopTime="0.00" timeLoss="19.83" rerouteNo="0" devices="tripinfo_25" vType="DEFAULT_VEHTYPE" speedFactor="1.09" vaporized=""/>
    <tripinfo id="22" depart="47.00" departLane="-218680176#1_0" departPos="5.10" departSpeed="0.00" departDelay="0.41" arrival="153.00" arrivalLane="210831345#1_1" arrivalPos="264.29" arrivalSpeed="15.03" duration="106.00" routeLength="699.94" waitingTime="43.00" waitingCount="2" stopTime="0.00" timeLoss="58.99" rerouteNo="0" devices="tripinfo_22" vType="DEFAULT_VEHTYPE" speedFactor="1.10" vaporized=""/>
    <tripinfo id="11" depart="24.00" departLane="-661251539_0" departPos="5.10" departSpeed="0.00" departDelay="0.71" arrival="155.00" arrivalLane="153964138#0_0" arrivalPos="337.99" arrivalSpeed="15.48" duration="131.00" routeLength="1239.04" waitingTime="23.00" waitingCount="2" stopTime="0.00" timeLoss="40.59" rerouteNo="0" devices="tripinfo_11" vType="DEFAULT_VEHTYPE" speedFactor="0.94" vaporized=""/>
    <tripinfo id="23" depart="50.00" departLane="-218680176#1_0" departPos="5.10" departSpeed="0.00" departDelay="1.29" arrival="161.00" arrivalLane="210831345#1_0" arrivalPos="264.29" arrivalSpeed="11.27" duration="111.00" routeLength="699.94" waitingTime="32.00" waitingCount="3" stopTime="0.00" timeLoss="50.05" rerouteNo="0" devices="tripinfo_23" vType="DEFAULT_VEHTYPE" speedFactor="0.85" vaporized=""/>
    <tripinfo id="36" depart="77.00" departLane="978867529_0" departPos="5.10" departSpeed="0.00" departDelay="0.76" arrival="162.00" arrivalLane="210831345#1_1" arrivalPos="264.29" arrivalSpeed="12.35" duration="85.00" routeLength="951.92" waitingTime="0.00" waitingCount="0" stopTime="0.00" timeLoss="15.26" rerouteNo="0" devices="tripinfo_36" vType="DEFAULT_VEHTYPE" speedFactor="0.94" vaporized=""/>
    <tripinfo id="5" depart="11.00" departLane="-226276377#1_0" departPos="5.10" departSpeed="0.00" departDelay="0.41" arrival="166.00" arrivalLane="218680176#0_1" arrivalPos="98.94" arrivalSpeed="11.90" duration="155.00" routeLength="1158.55" waitingTime="46.00" waitingCount="2" stopTime="0.00" timeLoss="68.62" rerouteNo="0" devices="tripinfo_5" vType="DEFAULT_VEHTYPE" speedFactor="0.94" vaporized=""/>
    <tripinfo id="35" depart="75.00" departLane="-226276377#1_0" departPos="5.10" departSpeed="0.00" departDelay="0.88" arrival="168.00" arrivalLane="450554042#0_0" arrivalPos="622.66" arrivalSpeed="15.09" duration="93.00" routeLength="763.53" waitingTime="31.00" waitingCount="1" stopTime="0.00" timeLoss="42.31" rerouteNo="0" devices="tripinfo_35" vType="DEFAULT_VEHTYPE" speedFactor="0.96" vaporized=""/>
    <tripinfo id="17" depart="36.00" departLane="-661251539_0" departPos="5.10" departSpeed="0.00" departDelay="0.00" arrival="169.00" arrivalLane="218680176#0_1" arrivalPos="98.94" arrivalSpeed="11.06" duration="133.00" routeLength="1001.21" waitingTime="27.00" waitingCount="2" stopTime="0.00" timeLoss="47.49" rerouteNo="0" devices="tripinfo_17" vType="DEFAULT_VEHTYPE" speedFactor="0.86" vaporized=""/>
    <tripinfo id="46" depart="98.00" departLane="978867529_0" departPos="5.10" departSpeed="0.00" departDelay="0.59" arrival="171.00" arrivalLane="210831347#0_0" arrivalPos="149.88" arrivalSpeed="12.30" duration="73.00" routeLength="812.56" waitingTime="2.00" waitingCount="1" stopTime="0.00" timeLoss="14.13" rerouteNo="0" devices="tripinfo_46" vType="DEFAULT_VEHTYPE" speedFactor="0.96" vaporized=""/>
    <tripinfo id="54" depart="115.00" departLane="256961141#0_0" departPos="5.10" departSpeed="0.00" departDelay="0.65" arrival="195.00" arrivalLane="450554042#0_1" arrivalPos="622.66" arrivalSpeed="16.91" duration="80.00" routeLength="853.74" waitingTime="17.00" waitingCount="1" stopTime="0.00" timeLoss="28.19" rerouteNo="0" devices="tripinfo_54" vType="DEFAULT_VEHTYPE" speedFactor="1.06" vaporized=""/>
    <tripinfo id="6" depart="13.00" departLane="-218680176#1_0" departPos="5.10" departSpeed="0.00" departDelay="0.29" arrival="204.00" arrivalLane="153964138#0_2" arrivalPos="337.99" arrivalSpeed="16.83" duration="191.00" routeLength="462.27" waitingTime="153.00" waitingCount="1" stopTime="0.00" timeLoss="161.58" rerouteNo="0" devices="tripinfo_6" vType="DEFAULT_VEHTYPE" speedFactor="1.04" vaporized=""/>
    <tripinfo id="28" depart="60.00" departLane="-226276377#1_0" departPos="5.10" departSpeed="0.00" departDelay="0.71" arrival="213.00" arrivalLane="231177697#0_0" arrivalPos="74.44" arrivalSpeed="12.20" duration="153.00" routeLength="1114.63" waitingTime="48.00" waitingCount="2" stopTime="0.00" timeLoss="66.59" rerouteNo="0" devices="tripinfo_28" vType="DEFAULT_VEHTYPE" speedFactor="0.90" vaporized=""/>
    <tripinfo id="61" depart="130.00" departLane="978867529_0" departPos="5.10" departSpeed="0.00" departDelay="0.82" arrival="214.00" arrivalLane="218680176#0_0" arrivalPos="98.94" arrivalSpeed="12.25" duration="84.00" routeLength="442.15" waitingTime="45.00" waitingCount="1" stopTime="0.00" timeLoss="52.99" rerouteNo="0" devices="tripinfo_61" vType="DEFAULT_VEHTYPE" speedFactor="0.94" vaporized=""/>
    <tripinfo id="2" depart="5.00" departLane="666135205#0_0" departPos="5.10" departSpeed="0.00" departDelay="0.76" arrival="215.00" arrivalLane="231177697#0_0" arrivalPos="74.44" arrivalSpeed="14.20" duration="210.00" routeLength="649.17" waitingTime="148.00" waitingCount="2" stopTime="0.00" timeLoss="164.74" rerouteNo="0" devices="tripinfo_2" vType="DEFAULT_VEHTYPE" speedFactor="1.07" vaporized=""/>
    <tripinfo id="14" depart="30.00" departLane="978867529_0" departPos="5.10" departSpeed="0.00" departDelay="0.35" arrival="215.00" arrivalLane="226276377#0_0" arrivalPos="135.52" arrivalSpeed="15.58" duration="185.00" routeLength="1369.55" waitingTime="75.00" waitingCount="3" stopTime="0.00" timeLoss="109.66" rerouteNo="0" devices="tripinfo_14" vType="DEFAULT_VEHTYPE" speedFactor="1.19" vaporized=""/>
    <tripinfo id="27" depart="58.00" departLane="65746828#0_0" departPos="5.10" departSpeed="0.00" departDelay="0.82" arrival="221.00" arrivalLane="226276377#0_0" arrivalPos="135.52" arrivalSpeed="11.70" duration="163.00" routeLength="841.69" waitingTime="80.00" waitingCount="2" stopTime="0.00" timeLoss="96.25" rerouteNo="0" devices="tripinfo_27" vType="DEFAULT_VEHTYPE" speedFactor="0.84" vaporized=""/>
    <tripinfo id="19" depart="42.00" departLane="978867529_0" departPos="5.10" departSpeed="0.00" departDelay="1.76" arrival="223.00" arrivalLane="226276377#0_0" arrivalPos="135.52" arrivalSpeed="13.86" duration="181.00" routeLength="1369.55" waitingTime="57.00" waitingCount="4" stopTime="0.00" timeLoss="95.44" rerouteNo="0" devices="tripinfo_19" vType="DEFAULT_VEHTYPE" speedFactor="1.05" vaporized=""/>
    <tripinfo id="18" depart="39.00" departLane="978867529_0" departPos="5.10" departSpeed="0.00" departDelay="0.88" arrival="225.00" arrivalLane="226276377#0_0" arrivalPos="135.52" arrivalSpeed="15.58" duration="186.00" routeLength="1369.55" waitingTime="66.00" waitingCount="3" stopTime="0.00" timeLoss="108.49" rerouteNo="0" devices="tripinfo_18" vType="DEFAULT_VEHTYPE" speedFactor="1.17" vaporized=""/>
    <tripinfo id="59" depart="125.00" departLane="65746828#0_0" departPos="5.10" departSpeed="0.00" departDelay="0.06" arrival="227.00" arrivalLane="153964138#0_2" arrivalPos="337.99" arrivalSpeed="15.82" duration="102.00" routeLength="834.49" waitingTime="36.00" waitingCount="1" stopTime="0.00" timeLoss="46.65" rerouteNo="0" devices="tripinfo_59" vType="DEFAULT_VEHTYPE" speedFactor="1.02" vaporized=""/>
    <tripinfo id="74" depart="157.00" departLane="-226276377#1_0" departPos="5.10" departSpeed="0.00" departDelay="0.29" arrival="227.00" arrivalLane="210831345#1_0" arrivalPos="264.29" arrivalSpeed="14.38" duration="70.00" routeLength="977.93" waitingTime="0.00" waitingCount="0" stopTime="0.00" timeLoss="8.54" rerouteNo="0" devices="tripinfo_74" vType="DEFAULT_VEHTYPE" speedFactor="1.10" vaporized=""/>
    <tripinfo id="42" depart="89.00" departLane="-661251539_0" departPos="5.10" departSpeed="0.00" departDelay="0.06" arrival="228.00" arrivalLane="153964138#0_1" arrivalPos="337.99" arrivalSpeed="16.27" duration="139.00" routeLength="1239.04" waitingTime="37.00" waitingCount="2" stopTime="0.00" timeLoss="55.49" rerouteNo="0" devices="tripinfo_42" vType="DEFAULT_VEHTYPE" speedFactor="1.03" vaporized=""/>
    <tripinfo id="78" depart="166.00" departLane="-661251539_0" departPos="5.10" departSpeed="0.00" departDelay="0.82" arrival="228.00" arrivalLane="226276377#0_0" arrivalPos="135.52" arrivalSpeed="16.20" duration="62.00" routeLength="783.10" waitingTime="0.00" waitingCount="0" stopTime="0.00" timeLoss="15.17" rerouteNo="0" devices="tripinfo_78" vType="DEFAULT_VEHTYPE" speedFactor="1.19" vaporized=""/>
    <tripinfo id="50" depart="106.00" departLane="-218680176#1_0" departPos="5.10" departSpeed="0.00" departDelay="0.12" arrival="242.00" arrivalLane="231177697#0_0" arrivalPos="74.44" arrivalSpeed="13.06" duration="136.00" routeLength="205.97" waitingTime="108.00" waitingCount="2" stopTime="0.00" timeLoss="121.14" rerouteNo="0" devices="tripinfo_50" vType="DEFAULT_VEHTYPE" speedFactor="1.00" vaporized=""/>
    <tripinfo id="77" depart="164.00" departLane="-226276377#1_0" departPos="5.10" departSpeed="0.00" departDelay="0.94" arrival="244.00" arrivalLane="210831345#1_0" arrivalPos="264.29" arrivalSpeed="12.71" duration="80.00" routeLength="977.93" waitingTime="0.00" waitingCount="0" stopTime="0.00" timeLoss="9.57" rerouteNo="0" devices="tripinfo_77" vType="DEFAULT_VEHTYPE" speedFactor="0.96" vaporized=""/>
    <tripinfo id="68" depart="144.00" departLane="-218680176#1_0" departPos="5.10" departSpeed="0.00" departDelay="0.00" arrival="250.00" arrivalLane="231177697#0_0" arrivalPos="74.44" arrivalSpeed="15.62" duration="106.00" routeLength="205.97" waitingTime="73.00" waitingCount="2" stopTime="0.00" timeLoss="92.56" rerouteNo="0" devices="tripinfo_68" vType="DEFAULT_VEHTYPE" speedFactor="1.14" vaporized=""/>
    <tripinfo id="40" depart="85.00" departLane="65746828#0_0" departPos="5.10" departSpeed="0.00" departDelay="0.29" arrival="252.00" arrivalLane="210831345#1_0" arrivalPos="264.29" arrivalSpeed="14.37" duration="167.00" routeLength="446.75" waitingTime="122.00" waitingCount="2" stopTime="0.00" timeLoss="135.96" rerouteNo="0" devices="tripinfo_40" vType="DEFAULT_VEHTYPE" speedFactor="1.05" vaporized=""/>
    <tripinfo id="79" depart="168.00" departLane="-231177697#2_0" departPos="5.10" departSpeed="0.00" departDelay="0.71" arrival="254.00" arrivalLane="153964138#0_0" arrivalPos="337.99" arrivalSpeed="14.72" duration="86.00" routeLength="417.38" waitingTime="48.00" waitingCount="1" stopTime="0.00" timeLoss="57.60" rerouteNo="0" devices="tripinfo_79" vType="DEFAULT_VEHTYPE" speedFactor="0.93" vaporized=""/>
    <tripinfo id="47" depart="100.00" departLane="-218680176#1_0" departPos="5.10" departSpeed="0.00" departDelay="0.47" arrival="269.00" arrivalLane="210831347#0_0" arrivalPos="149.88" arrivalSpeed="14.90" duration="169.00" routeLength="560.58" waitingTime="113.00" waitingCount="2" stopTime="0.00" timeLoss="130.29" rerouteNo="0" devices="tripinfo_47" vType="DEFAULT_VEHTYPE" speedFactor="1.10" vaporized=""/>
    <tripinfo id="49" depart="105.00" departLane="E8_0" departPos="5.10" departSpeed="0.00" departDelay="1.24" arrival="270.00" arrivalLane="39907424_0" arrivalPos="316.44" arrivalSpeed="11.71" duration="165.00" routeLength="1303.68" waitingTime="50.00" waitingCount="2" stopTime="0.00" timeLoss="67.63" rerouteNo="0" devices="tripinfo_49" vType="DEFAULT_VEHTYPE" speedFactor="0.93" vaporized=""/>
    <tripinfo id="115" depart="244.00" departLane="-218680176#1_0" departPos="5.10" departSpeed="0.00" departDelay="0.47" arrival="277.00" arrivalLane="153964138#0_2" arrivalPos="337.99" arrivalSpeed="17.53" duration="33.00" routeLength="462.27" waitingTime="0.00" waitingCount="0" stopTime="0.00" timeLoss="5.01" rerouteNo="0" devices="tripinfo_115" vType="DEFAULT_VEHTYPE" speedFactor="1.08" vaporized=""/>
    <tripinfo id="57" depart="121.00" departLane="E8_0" departPos="5.10" departSpeed="0.00" departDelay="0.29" arrival="278.00" arrivalLane="39907424_0" arrivalPos="316.44" arrivalSpeed="11.99" duration="157.00" routeLength="1303.68" waitingTime="38.00" waitingCount="3" stopTime="0.00" timeLoss="59.80" rerouteNo="0" devices="tripinfo_57" vType="DEFAULT_VEHTYPE" speedFactor="0.93" vaporized=""/>
    <tripinfo id="88" depart="187.00" departLane="-218680176#1_0" departPos="5.10" departSpeed="0.00" departDelay="0.65" arrival="287.00" arrivalLane="210831347#0_0" arrivalPos="149.88" arrivalSpeed="13.18" duration="100.00" routeLength="560.58" waitingTime="39.00" waitingCount="1" stopTime="0.00" timeLoss="56.76" rerouteNo="0" devices="tripinfo_88" vType="DEFAULT_VEHTYPE" speedFactor="0.97" vaporized=""/>
    <tripinfo id="12" depart="26.00" departLane="E8_0" departPos="5.10" departSpeed="0.00" departDelay="0.59" arrival="293.00" arrivalLane="210831347#0_1" arrivalPos="149.88" arrivalSpeed="14.89" duration="267.00" routeLength="1367.17" waitingTime="161.00" waitingCount="2" stopTime="0.00" timeLoss="182.51" rerouteNo="0" devices="tripinfo_12" vType="DEFAULT_VEHTYPE" speedFactor="1.13" vaporized=""/>
    <tripinfo id="90" depart="191.00" departLane="666135205#0_0" departPos="5.10" departSpeed="0.00" departDelay="0.41" arrival="293.00" arrivalLane="231177697#0_0" arrivalPos="74.44" arrivalSpeed="8.87" duration="102.00" routeLength="649.17" waitingTime="16.00" waitingCount="2" stopTime="0.00" timeLoss="34.65" rerouteNo="0" devices="tripinfo_90" vType="DEFAULT_VEHTYPE" speedFactor="0.72" vaporized=""/>
    <tripinfo id="53" depart="113.00" departLane="-226276377#1_0" departPos="5.10" departSpeed="0.00" departDelay="0.76" arrival="297.00" arrivalLane="210831347#0_1" arrivalPos="149.88" arrivalSpeed="12.87" duration="184.00" routeLength="888.52" waitingTime="101.00" waitingCount="2" stopTime="0.00" timeLoss="120.25" rerouteNo="0" devices="tripinfo_53" vType="DEFAULT_VEHTYPE" speedFactor="0.96" vaporized=""/>
    <tripinfo id="64" depart="136.00" departLane="978867529_0" departPos="5.10" departSpeed="0.00" departDelay="0.47" arrival="297.00" arrivalLane="39907424_0" arrivalPos="316.44" arrivalSpeed="13.98" duration="161.00" routeLength="1216.15" waitingTime="60.00" waitingCount="2" stopTime="0.00" timeLoss="81.23" rerouteNo="0" devices="tripinfo_64" vType="DEFAULT_VEHTYPE" speedFactor="1.03" vaporized=""/>
    <tripinfo id="92" depart="195.00" departLane="-661251539_0" departPos="5.10" departSpeed="0.00" departDelay="0.18" arrival="298.00" arrivalLane="210831347#0_1" arrivalPos="149.88" arrivalSpeed="14.66" duration="103.00" routeLength="731.18" waitingTime="31.00" waitingCount="2" stopTime="0.00" timeLoss="52.27" rerouteNo="0" devices="tripinfo_92" vType="DEFAULT_VEHTYPE" speedFactor="1.06" vaporized=""/>
    <tripinfo id="72" depart="153.00" departLane="-661251539_0" departPos="5.10" departSpeed="0.00" departDelay="0.53" arrival="304.00" arrivalLane="153964138#0_0" arrivalPos="337.99" arrivalSpeed="15.06" duration="151.00" routeLength="1239.04" waitingTime="45.00" waitingCount="1" stopTime="0.00" timeLoss="63.33" rerouteNo="0" devices="tripinfo_72" vType="DEFAULT_VEHTYPE" speedFactor="0.98" vaporized=""/>
    <tripinfo id="21" depart="45.00" departLane="-231177697#2_0" departPos="5.10" departSpeed="0.00" departDelay="0.53" arrival="305.00" arrivalLane="210831345#1_0" arrivalPos="264.29" arrivalSpeed="16.22" duration="260.00" routeLength="696.92" waitingTime="195.00" waitingCount="2" stopTime="0.00" timeLoss="216.36" rerouteNo="0" devices="tripinfo_21" vType="DEFAULT_VEHTYPE" speedFactor="1.17" vaporized=""/>
    <tripinfo id="69" depart="147.00" departLane="666135205#0_0" departPos="5.10" departSpeed="0.00" departDelay="0.88" arrival="308.00" arrivalLane="153964138#0_0" arrivalPos="337.99" arrivalSpeed="13.13" duration="161.00" routeLength="924.87" waitingTime="66.00" waitingCount="2" stopTime="0.00" timeLoss="84.82" rerouteNo="0" devices="tripinfo_69" vType="DEFAULT_VEHTYPE" speedFactor="0.84" vaporized=""/>
    <tripinfo id="84" depart="178.00" departLane="-226276377#1_0" departPos="5.10" departSpeed="0.00" departDelay="0.12" arrival="309.00" arrivalLane="153964138#0_1" arrivalPos="337.99" arrivalSpeed="14.50" duration="131.00" routeLength="1390.33" waitingTime="13.00" waitingCount="1" stopTime="0.00" timeLoss="25.81" rerouteNo="0" devices="tripinfo_84" vType="DEFAULT_VEHTYPE" speedFactor="0.88" vaporized=""/>
    <tripinfo id="34" depart="72.00" departLane="-231177697#2_0" departPos="5.10" departSpeed="0.00" departDelay="0.00" arrival="310.00" arrivalLane="210831345#1_1" arrivalPos="264.29" arrivalSpeed="12.87" duration="238.00" routeLength="696.92" waitingTime="165.00" waitingCount="2" stopTime="0.00" timeLoss="182.54" rerouteNo="0" devices="tripinfo_34" vType="DEFAULT_VEHTYPE" speedFactor="0.93" vaporized=""/>
    <tripinfo id="55" depart="117.00" departLane="978867529_0" departPos="5.10" departSpeed="0.00" departDelay="0.53" arrival="310.00" arrivalLane="210831345#1_0" arrivalPos="264.29" arrivalSpeed="10.48" duration="193.00" routeLength="951.92" waitingTime="95.00" waitingCount="1" stopTime="0.00" timeLoss="107.25" rerouteNo="0" devices="tripinfo_55" vType="DEFAULT_VEHTYPE" speedFactor="0.76" vaporized=""/>
    <tripinfo id="39" depart="83.00" departLane="-231177697#2_0" departPos="5.10" departSpeed="0.00" departDelay="0.41" arrival="311.00" arrivalLane="210831345#1_1" arrivalPos="264.29" arrivalSpeed="14.44" duration="228.00" routeLength="696.92" waitingTime="156.00" waitingCount="2" stopTime="0.00" timeLoss="179.89" rerouteNo="0" devices="tripinfo_39" vType="DEFAULT_VEHTYPE" speedFactor="1.06" vaporized=""/>
    <tripinfo id="132" depart="280.00" departLane="978867529_0" departPos="5.10" departSpeed="0.00" departDelay="0.47" arrival="313.00" arrivalLane="231177697#0_1" arrivalPos="74.44" arrivalSpeed="13.89" duration="33.00" routeLength="437.06" waitingTime="0.00" waitingCount="0" stopTime="0.00" timeLoss="5.06" rerouteNo="0" devices="tripinfo_132" vType="DEFAULT_VEHTYPE" speedFactor="1.04" vaporized=""/>
    <tripinfo id="38" depart="81.00" departLane="E8_0" departPos="5.10" departSpeed="0.00" departDelay="0.53" arrival="314.00" arrivalLane="218680176#0_1" arrivalPos="98.94" arrivalSpeed="14.46" duration="233.00" routeLength="1637.20" waitingTime="109.00" waitingCount="1" stopTime="0.00" timeLoss="129.04" rerouteNo="0" devices="tripinfo_38" vType="DEFAULT_VEHTYPE" speedFactor="1.10" vaporized=""/>
    <tripinfo id="43" depart="92.00" departLane="E8_0" departPos="5.10" departSpeed="0.00" departDelay="0.94" arrival="316.00" arrivalLane="218680176#0_1" arrivalPos="98.94" arrivalSpeed="14.83" duration="224.00" routeLength="1637.20" waitingTime="106.00" waitingCount="1" stopTime="0.00" timeLoss="122.50" rerouteNo="0" devices="tripinfo_43" vType="DEFAULT_VEHTYPE" speedFactor="1.13" vaporized=""/>
    <tripinfo id="62" depart="132.00" departLane="-218680176#1_0" departPos="5.10" departSpeed="0.00" departDelay="0.71" arrival="317.00" arrivalLane="210831345#1_0" arrivalPos="264.29" arrivalSpeed="10.64" duration="185.00" routeLength="699.94" waitingTime="95.00" waitingCount="3" stopTime="0.00" timeLoss="120.85" rerouteNo="0" devices="tripinfo_62" vType="DEFAULT_VEHTYPE" speedFactor="0.81" vaporized=""/>
    <tripinfo id="76" depart="161.00" departLane="-661251539_0" departPos="5.10" departSpeed="0.00" departDelay="0.06" arrival="321.00" arrivalLane="218680176#0_1" arrivalPos="98.94" arrivalSpeed="10.63" duration="160.00" routeLength="1001.21" waitingTime="58.00" waitingCount="1" stopTime="0.00" timeLoss="71.36" rerouteNo="0" devices="tripinfo_76" vType="DEFAULT_VEHTYPE" speedFactor="0.83" vaporized=""/>
    <tripinfo id="123" depart="261.00" departLane="-231177697#2_0" departPos="5.10" departSpeed="0.00" departDelay="0.53" arrival="321.00" arrivalLane="210831347#0_0" arrivalPos="149.88" arrivalSpeed="11.56" duration="60.00" routeLength="557.56" waitingTime="5.00" waitingCount="1" stopTime="0.00" timeLoss="15.43" rerouteNo="0" devices="tripinfo_123" vType="DEFAULT_VEHTYPE" speedFactor="0.92" vaporized=""/>
    <tripinfo id="51" depart="108.00" departLane="666135205#0_0" departPos="5.10" departSpeed="0.00" departDelay="0.00" arrival="323.00" arrivalLane="218680176#0_1" arrivalPos="98.94" arrivalSpeed="16.18" duration="215.00" routeLength="693.09" waitingTime="146.00" waitingCount="3" stopTime="0.00" timeLoss="171.72" rerouteNo="0" devices="tripinfo_51" vType="DEFAULT_VEHTYPE" speedFactor="1.21" vaporized=""/>
    <tripinfo id="60" depart="128.00" departLane="666135205#0_0" departPos="5.10" departSpeed="0.00" departDelay="0.94" arrival="326.00" arrivalLane="218680176#0_1" arrivalPos="98.94" arrivalSpeed="11.01" duration="198.00" routeLength="693.09" waitingTime="115.00" waitingCount="2" stopTime="0.00" timeLoss="134.93" rerouteNo="0" devices="tripinfo_60" vType="DEFAULT_VEHTYPE" speedFactor="0.82" vaporized=""/>
    <tripinfo id="48" depart="102.00" departLane="E8_0" departPos="5.10" departSpeed="0.00" departDelay="0.35" arrival="327.00" arrivalLane="218680176#0_1" arrivalPos="98.94" arrivalSpeed="13.16" duration="225.00" routeLength="1637.20" waitingTime="87.00" waitingCount="3" stopTime="0.00" timeLoss="116.95" rerouteNo="0" devices="tripinfo_48" vType="DEFAULT_VEHTYPE" speedFactor="1.06" vaporized=""/>
    <tripinfo id="95" depart="202.00" departLane="-661251539_0" departPos="5.10" departSpeed="0.00" departDelay="0.82" arrival="327.00" arrivalLane="210831345#1_1" arrivalPos="264.29" arrivalSpeed="17.31" duration="125.00" routeLength="826.64" waitingTime="45.00" waitingCount="4" stopTime="0.00" timeLoss="77.31" rerouteNo="0" devices="tripinfo_95" vType="DEFAULT_VEHTYPE" speedFactor="1.27" vaporized=""/>
    <tripinfo id="109" depart="231.00" departLane="-226276377#1_0" departPos="5.10" departSpeed="0.00" departDelay="0.18" arrival="330.00" arrivalLane="210831345#1_0" arrivalPos="264.29" arrivalSpeed="12.55" duration="99.00" routeLength="977.93" waitingTime="14.00" waitingCount="1" stopTime="0.00" timeLoss="27.65" rerouteNo="0" devices="tripinfo_109" vType="DEFAULT_VEHTYPE" speedFactor="0.95" vaporized=""/>
    <tripinfo id="121" depart="257.00" departLane="256961141#0_0" departPos="5.10" departSpeed="0.00" departDelay="0.76" arrival="333.00" arrivalLane="450554042#0_0" arrivalPos="622.66" arrivalSpeed="12.51" duration="76.00" routeLength="853.74" waitingTime="0.00" waitingCount="0" stopTime="0.00" timeLoss="6.05" rerouteNo="0" devices="tripinfo_121" vType="DEFAULT_VEHTYPE" speedFactor="0.78" vaporized=""/>