<?xml version="1.0" encoding="UTF-8"?>

<!-- generated on 2024-09-02 16:03:29 by Eclipse SUMO sumo Version 1.20.0
<configuration xmlns:xsi="http://www.w3.org/2001/XMLSchema-instance" xsi:noNamespaceSchemaLocation="http://sumo.dlr.de/xsd/sumoConfiguration.xsd">

    <input>
        <net-file value="c:\self\School\Master\Disertation\code\RESCO\resco_benchmark\environments/unirii/osm.net.xml.gz"/>
        <route-files value="c:\self\School\Master\Disertation\code\RESCO\resco_benchmark\environments/unirii/osm.passenger.trips.xml"/>
        <additional-files value="c:\self\School\Master\Disertation\code\RESCO\resco_benchmark\environments/unirii/osm.poly.xml.gz"/>
    </input>

    <output>
        <tripinfo-output value="C:\self\School\Master\Disertation\code\RESCO\results\IDQN-tr0-unirii-0-drq-wait\tripinfo_45.xml"/>
        <tripinfo-output.write-unfinished value="true"/>
    </output>

    <processing>
        <ignore-route-errors value="true"/>
        <time-to-teleport value="-1"/>
    </processing>

    <routing>
        <device.rerouting.adaptation-steps value="18"/>
        <device.rerouting.adaptation-interval value="10"/>
    </routing>

    <report>
        <verbose value="true"/>
        <no-warnings value="True"/>
        <duration-log.statistics value="true"/>
        <no-step-log value="True"/>
    </report>

    <traci_server>
        <remote-port value="63429"/>
    </traci_server>

    <random_number>
        <random value="true"/>
    </random_number>

    <gui_only>
        <gui-settings-file value="c:\self\School\Master\Disertation\code\RESCO\resco_benchmark\environments/unirii/osm.view.xml"/>
    </gui_only>

</configuration>
-->

<tripinfos xmlns:xsi="http://www.w3.org/2001/XMLSchema-instance" xsi:noNamespaceSchemaLocation="http://sumo.dlr.de/xsd/tripinfo_file.xsd">
    <tripinfo id="6" depart="13.00" departLane="-218680176#1_0" departPos="5.10" departSpeed="0.00" departDelay="0.29" arrival="104.00" arrivalLane="153964138#0_2" arrivalPos="337.99" arrivalSpeed="16.24" duration="91.00" routeLength="462.27" waitingTime="53.00" waitingCount="1" stopTime="0.00" timeLoss="60.85" rerouteNo="0" devices="tripinfo_6" vType="DEFAULT_VEHTYPE" speedFactor="0.99" vaporized=""/>
    <tripinfo id="7" depart="15.00" departLane="65746828#0_0" departPos="5.10" departSpeed="0.00" departDelay="0.18" arrival="114.00" arrivalLane="218680176#0_1" arrivalPos="98.94" arrivalSpeed="15.40" duration="99.00" routeLength="602.71" waitingTime="48.00" waitingCount="1" stopTime="0.00" timeLoss="60.18" rerouteNo="0" devices="tripinfo_7" vType="DEFAULT_VEHTYPE" speedFactor="1.15" vaporized=""/>
    <tripinfo id="10" depart="23.00" departLane="978867529_0" departPos="5.10" departSpeed="0.00" departDelay="1.82" arrival="114.00" arrivalLane="231177697#0_1" arrivalPos="74.44" arrivalSpeed="13.35" duration="91.00" routeLength="437.06" waitingTime="50.00" waitingCount="1" stopTime="0.00" timeLoss="61.67" rerouteNo="0" devices="tripinfo_10" vType="DEFAULT_VEHTYPE" speedFactor="1.00" vaporized=""/>
    <tripinfo id="15" depart="33.00" departLane="978867529_0" departPos="5.10" departSpeed="0.00" departDelay="1.24" arrival="115.00" arrivalLane="231177697#0_1" arrivalPos="74.44" arrivalSpeed="15.60" duration="82.00" routeLength="437.06" waitingTime="44.00" waitingCount="1" stopTime="0.00" timeLoss="58.06" rerouteNo="0" devices="tripinfo_15" vType="DEFAULT_VEHTYPE" speedFactor="1.20" vaporized=""/>
    <tripinfo id="32" depart="68.00" departLane="978867529_0" departPos="5.10" departSpeed="0.00" departDelay="0.24" arrival="117.00" arrivalLane="231177697#0_1" arrivalPos="74.44" arrivalSpeed="14.83" duration="49.00" routeLength="437.06" waitingTime="12.00" waitingCount="1" stopTime="0.00" timeLoss="23.91" rerouteNo="0" devices="tripinfo_32" vType="DEFAULT_VEHTYPE" speedFactor="1.15" vaporized=""/>
    <tripinfo id="4" depart="9.00" departLane="-661251539_0" departPos="5.10" departSpeed="0.00" departDelay="0.53" arrival="122.00" arrivalLane="-256961141#1_1" arrivalPos="204.72" arrivalSpeed="14.80" duration="113.00" routeLength="872.91" waitingTime="42.00" waitingCount="1" stopTime="0.00" timeLoss="55.96" rerouteNo="0" devices="tripinfo_4" vType="DEFAULT_VEHTYPE" speedFactor="1.07" vaporized=""/>
    <tripinfo id="16" depart="34.00" departLane="256961141#0_0" departPos="5.10" departSpeed="0.00" departDelay="0.12" arrival="122.00" arrivalLane="450554042#0_0" arrivalPos="622.66" arrivalSpeed="16.57" duration="88.00" routeLength="853.74" waitingTime="22.00" waitingCount="1" stopTime="0.00" timeLoss="33.24" rerouteNo="0" devices="tripinfo_16" vType="DEFAULT_VEHTYPE" speedFactor="1.00" vaporized=""/>
    <tripinfo id="22" depart="47.00" departLane="-218680176#1_0" departPos="5.10" departSpeed="0.00" departDelay="0.41" arrival="128.00" arrivalLane="210831345#1_1" arrivalPos="264.29" arrivalSpeed="13.14" duration="81.00" routeLength="699.94" waitingTime="17.00" waitingCount="1" stopTime="0.00" timeLoss="29.95" rerouteNo="0" devices="tripinfo_22" vType="DEFAULT_VEHTYPE" speedFactor="1.03" vaporized=""/>
    <tripinfo id="0" depart="0.00" departLane="65746828#0_0" departPos="5.10" departSpeed="0.00" departDelay="0.00" arrival="129.00" arrivalLane="-256961141#1_1" arrivalPos="204.72" arrivalSpeed="11.30" duration="129.00" routeLength="931.50" waitingTime="36.00" waitingCount="2" stopTime="0.00" timeLoss="53.04" rerouteNo="0" devices="tripinfo_0" vType="DEFAULT_VEHTYPE" speedFactor="0.82" vaporized=""/>
    <tripinfo id="23" depart="50.00" departLane="-218680176#1_0" departPos="5.10" departSpeed="0.00" departDelay="1.29" arrival="131.00" arrivalLane="210831345#1_1" arrivalPos="264.29" arrivalSpeed="12.43" duration="81.00" routeLength="699.94" waitingTime="13.00" waitingCount="1" stopTime="0.00" timeLoss="27.45" rerouteNo="0" devices="tripinfo_23" vType="DEFAULT_VEHTYPE" speedFactor="0.97" vaporized=""/>
    <tripinfo id="1" depart="3.00" departLane="-231177697#2_0" departPos="5.10" departSpeed="0.00" departDelay="0.88" arrival="132.00" arrivalLane="210831345#1_0" arrivalPos="264.29" arrivalSpeed="15.56" duration="129.00" routeLength="696.92" waitingTime="65.00" waitingCount="2" stopTime="0.00" timeLoss="84.08" rerouteNo="0" devices="tripinfo_1" vType="DEFAULT_VEHTYPE" speedFactor="1.15" vaporized=""/>
    <tripinfo id="20" depart="43.00" departLane="666135205#0_0" departPos="5.10" departSpeed="0.00" departDelay="0.65" arrival="132.00" arrivalLane="-256961141#1_1" arrivalPos="204.72" arrivalSpeed="14.69" duration="89.00" routeLength="1068.72" waitingTime="10.00" waitingCount="1" stopTime="0.00" timeLoss="22.38" rerouteNo="0" devices="tripinfo_20" vType="DEFAULT_VEHTYPE" speedFactor="1.09" vaporized=""/>
    <tripinfo id="30" depart="64.00" departLane="E8_0" departPos="5.10" departSpeed="0.00" departDelay="0.47" arrival="134.00" arrivalLane="226276377#0_1" arrivalPos="135.52" arrivalSpeed="11.85" duration="70.00" routeLength="784.51" waitingTime="0.00" waitingCount="0" stopTime="0.00" timeLoss="6.91" rerouteNo="0" devices="tripinfo_30" vType="DEFAULT_VEHTYPE" speedFactor="0.91" vaporized=""/>
    <tripinfo id="21" depart="45.00" departLane="-231177697#2_0" departPos="5.10" departSpeed="0.00" departDelay="0.53" arrival="135.00" arrivalLane="210831345#1_1" arrivalPos="264.29" arrivalSpeed="11.71" duration="90.00" routeLength="696.92" waitingTime="22.00" waitingCount="1" stopTime="0.00" timeLoss="35.35" rerouteNo="0" devices="tripinfo_21" vType="DEFAULT_VEHTYPE" speedFactor="0.94" vaporized=""/>
    <tripinfo id="34" depart="72.00" departLane="-231177697#2_0" departPos="5.10" departSpeed="0.00" departDelay="0.00" arrival="136.00" arrivalLane="210831345#1_0" arrivalPos="264.29" arrivalSpeed="14.68" duration="64.00" routeLength="696.92" waitingTime="0.00" waitingCount="0" stopTime="0.00" timeLoss="18.18" rerouteNo="0" devices="tripinfo_34" vType="DEFAULT_VEHTYPE" speedFactor="1.12" vaporized=""/>
    <tripinfo id="2" depart="5.00" departLane="666135205#0_0" departPos="5.10" departSpeed="0.00" departDelay="0.76" arrival="137.00" arrivalLane="231177697#0_0" arrivalPos="74.44" arrivalSpeed="14.29" duration="132.00" routeLength="649.17" waitingTime="71.00" waitingCount="2" stopTime="0.00" timeLoss="87.61" rerouteNo="0" devices="tripinfo_2" vType="DEFAULT_VEHTYPE" speedFactor="1.10" vaporized=""/>
    <tripinfo id="39" depart="83.00" departLane="-231177697#2_0" departPos="5.10" departSpeed="0.00" departDelay="0.41" arrival="138.00" arrivalLane="210831345#1_1" arrivalPos="264.29" arrivalSpeed="13.72" duration="55.00" routeLength="696.92" waitingTime="0.00" waitingCount="0" stopTime="0.00" timeLoss="5.65" rerouteNo="0" devices="tripinfo_39" vType="DEFAULT_VEHTYPE" speedFactor="1.04" vaporized=""/>
    <tripinfo id="31" depart="66.00" departLane="65746828#0_0" departPos="5.10" departSpeed="0.00" departDelay="0.35" arrival="141.00" arrivalLane="231177697#0_0" arrivalPos="74.44" arrivalSpeed="11.65" duration="75.00" routeLength="558.79" waitingTime="18.00" waitingCount="1" stopTime="0.00" timeLoss="29.25" rerouteNo="0" devices="tripinfo_31" vType="DEFAULT_VEHTYPE" speedFactor="0.91" vaporized=""/>
    <tripinfo id="27" depart="58.00" departLane="65746828#0_0" departPos="5.10" departSpeed="0.00" departDelay="0.82" arrival="142.00" arrivalLane="226276377#0_0" arrivalPos="135.52" arrivalSpeed="12.40" duration="84.00" routeLength="841.69" waitingTime="11.00" waitingCount="1" stopTime="0.00" timeLoss="23.90" rerouteNo="0" devices="tripinfo_27" vType="DEFAULT_VEHTYPE" speedFactor="0.93" vaporized=""/>
    <tripinfo id="3" depart="7.00" departLane="E8_0" departPos="5.10" departSpeed="0.00" departDelay="0.65" arrival="147.00" arrivalLane="-256961141#1_0" arrivalPos="204.72" arrivalSpeed="12.58" duration="140.00" routeLength="832.89" waitingTime="68.00" waitingCount="1" stopTime="0.00" timeLoss="78.25" rerouteNo="0" devices="tripinfo_3" vType="DEFAULT_VEHTYPE" speedFactor="0.99" vaporized=""/>
    <tripinfo id="40" depart="85.00" departLane="65746828#0_0" departPos="5.10" departSpeed="0.00" departDelay="0.29" arrival="147.00" arrivalLane="210831345#1_0" arrivalPos="264.29" arrivalSpeed="14.18" duration="62.00" routeLength="446.75" waitingTime="22.00" waitingCount="1" stopTime="0.00" timeLoss="31.43" rerouteNo="0" devices="tripinfo_40" vType="DEFAULT_VEHTYPE" speedFactor="1.06" vaporized=""/>
    <tripinfo id="35" depart="75.00" departLane="-226276377#1_0" departPos="5.10" departSpeed="0.00" departDelay="0.88" arrival="161.00" arrivalLane="450554042#0_0" arrivalPos="622.66" arrivalSpeed="19.02" duration="86.00" routeLength="763.53" waitingTime="32.00" waitingCount="1" stopTime="0.00" timeLoss="43.58" rerouteNo="0" devices="tripinfo_35" vType="DEFAULT_VEHTYPE" speedFactor="1.15" vaporized=""/>
    <tripinfo id="17" depart="36.00" departLane="-661251539_0" departPos="5.10" departSpeed="0.00" departDelay="0.00" arrival="172.00" arrivalLane="218680176#0_1" arrivalPos="98.94" arrivalSpeed="11.50" duration="136.00" routeLength="1001.21" waitingTime="34.00" waitingCount="1" stopTime="0.00" timeLoss="47.55" rerouteNo="0" devices="tripinfo_17" vType="DEFAULT_VEHTYPE" speedFactor="0.83" vaporized=""/>
    <tripinfo id="5" depart="11.00" departLane="-226276377#1_0" departPos="5.10" departSpeed="0.00" departDelay="0.41" arrival="174.00" arrivalLane="218680176#0_1" arrivalPos="98.94" arrivalSpeed="11.56" duration="163.00" routeLength="1158.55" waitingTime="50.00" waitingCount="2" stopTime="0.00" timeLoss="72.42" rerouteNo="0" devices="tripinfo_5" vType="DEFAULT_VEHTYPE" speedFactor="0.90" vaporized=""/>
    <tripinfo id="50" depart="106.00" departLane="-218680176#1_0" departPos="5.10" departSpeed="0.00" departDelay="0.12" arrival="187.00" arrivalLane="231177697#0_0" arrivalPos="74.44" arrivalSpeed="16.54" duration="81.00" routeLength="205.97" waitingTime="54.00" waitingCount="2" stopTime="0.00" timeLoss="68.51" rerouteNo="0" devices="tripinfo_50" vType="DEFAULT_VEHTYPE" speedFactor="1.28" vaporized=""/>
    <tripinfo id="29" depart="63.00" departLane="-226276377#1_0" departPos="5.10" departSpeed="0.00" departDelay="1.59" arrival="194.00" arrivalLane="210831347#0_1" arrivalPos="149.88" arrivalSpeed="12.88" duration="131.00" routeLength="888.52" waitingTime="53.00" waitingCount="2" stopTime="0.00" timeLoss="70.60" rerouteNo="0" devices="tripinfo_29" vType="DEFAULT_VEHTYPE" speedFactor="1.01" vaporized=""/>
    <tripinfo id="68" depart="144.00" departLane="-218680176#1_0" departPos="5.10" departSpeed="0.00" departDelay="0.00" arrival="195.00" arrivalLane="231177697#0_0" arrivalPos="74.44" arrivalSpeed="13.49" duration="51.00" routeLength="205.97" waitingTime="24.00" waitingCount="1" stopTime="0.00" timeLoss="35.32" rerouteNo="0" devices="tripinfo_68" vType="DEFAULT_VEHTYPE" speedFactor="0.97" vaporized=""/>
    <tripinfo id="12" depart="26.00" departLane="E8_0" departPos="5.10" departSpeed="0.00" departDelay="0.59" arrival="196.00" arrivalLane="210831347#0_1" arrivalPos="149.88" arrivalSpeed="15.84" duration="170.00" routeLength="1367.17" waitingTime="67.00" waitingCount="2" stopTime="0.00" timeLoss="86.64" rerouteNo="0" devices="tripinfo_12" vType="DEFAULT_VEHTYPE" speedFactor="1.15" vaporized=""/>
    <tripinfo id="79" depart="168.00" departLane="-231177697#2_0" departPos="5.10" departSpeed="0.00" departDelay="0.71" arrival="199.00" arrivalLane="153964138#0_0" arrivalPos="337.99" arrivalSpeed="17.47" duration="31.00" routeLength="417.38" waitingTime="0.00" waitingCount="0" stopTime="0.00" timeLoss="5.98" rerouteNo="0" devices="tripinfo_79" vType="DEFAULT_VEHTYPE" speedFactor="1.07" vaporized=""/>
    <tripinfo id="13" depart="28.00" departLane="-218680176#1_0" departPos="5.10" departSpeed="0.00" departDelay="0.47" arrival="200.00" arrivalLane="-256961141#1_1" arrivalPos="204.72" arrivalSpeed="12.52" duration="172.00" routeLength="1207.38" waitingTime="62.00" waitingCount="2" stopTime="0.00" timeLoss="81.23" rerouteNo="0" devices="tripinfo_13" vType="DEFAULT_VEHTYPE" speedFactor="0.90" vaporized=""/>
    <tripinfo id="33" depart="70.00" departLane="-231177697#2_0" departPos="5.10" departSpeed="0.00" departDelay="0.12" arrival="202.00" arrivalLane="-256961141#1_1" arrivalPos="204.72" arrivalSpeed="13.43" duration="132.00" routeLength="1204.36" waitingTime="19.00" waitingCount="4" stopTime="0.00" timeLoss="53.74" rerouteNo="0" devices="tripinfo_33" vType="DEFAULT_VEHTYPE" speedFactor="1.05" vaporized=""/>
    <tripinfo id="36" depart="77.00" departLane="978867529_0" departPos="5.10" departSpeed="0.00" departDelay="0.76" arrival="203.00" arrivalLane="210831345#1_1" arrivalPos="264.29" arrivalSpeed="14.34" duration="126.00" routeLength="951.92" waitingTime="45.00" waitingCount="2" stopTime="0.00" timeLoss="63.05" rerouteNo="0" devices="tripinfo_36" vType="DEFAULT_VEHTYPE" speedFactor="1.05" vaporized=""/>
    <tripinfo id="44" depart="94.00" departLane="-218680176#1_0" departPos="5.10" departSpeed="0.00" departDelay="0.82" arrival="203.00" arrivalLane="-256961141#1_1" arrivalPos="204.72" arrivalSpeed="13.99" duration="109.00" routeLength="1207.38" waitingTime="15.00" waitingCount="1" stopTime="0.00" timeLoss="31.03" rerouteNo="0" devices="tripinfo_44" vType="DEFAULT_VEHTYPE" speedFactor="1.05" vaporized=""/>
    <tripinfo id="54" depart="115.00" departLane="256961141#0_0" departPos="5.10" departSpeed="0.00" departDelay="0.65" arrival="206.00" arrivalLane="450554042#0_0" arrivalPos="622.66" arrivalSpeed="12.43" duration="91.00" routeLength="853.74" waitingTime="14.00" waitingCount="1" stopTime="0.00" timeLoss="24.14" rerouteNo="0" devices="tripinfo_54" vType="DEFAULT_VEHTYPE" speedFactor="0.82" vaporized=""/>
    <tripinfo id="55" depart="117.00" departLane="978867529_0" departPos="5.10" departSpeed="0.00" departDelay="0.53" arrival="208.00" arrivalLane="210831345#1_0" arrivalPos="264.29" arrivalSpeed="12.16" duration="91.00" routeLength="951.92" waitingTime="6.00" waitingCount="1" stopTime="0.00" timeLoss="19.41" rerouteNo="0" devices="tripinfo_55" vType="DEFAULT_VEHTYPE" speedFactor="0.92" vaporized=""/>
    <tripinfo id="51" depart="108.00" departLane="666135205#0_0" departPos="5.10" departSpeed="0.00" departDelay="0.00" arrival="214.00" arrivalLane="218680176#0_1" arrivalPos="98.94" arrivalSpeed="15.10" duration="106.00" routeLength="693.09" waitingTime="44.00" waitingCount="2" stopTime="0.00" timeLoss="59.21" rerouteNo="0" devices="tripinfo_51" vType="DEFAULT_VEHTYPE" speedFactor="1.09" vaporized=""/>
    <tripinfo id="46" depart="98.00" departLane="978867529_0" departPos="5.10" departSpeed="0.00" departDelay="0.59" arrival="217.00" arrivalLane="210831347#0_0" arrivalPos="149.88" arrivalSpeed="14.83" duration="119.00" routeLength="812.56" waitingTime="49.00" waitingCount="2" stopTime="0.00" timeLoss="67.23" rerouteNo="0" devices="tripinfo_46" vType="DEFAULT_VEHTYPE" speedFactor="1.09" vaporized=""/>
    <tripinfo id="60" depart="128.00" departLane="666135205#0_0" departPos="5.10" departSpeed="0.00" departDelay="0.94" arrival="218.00" arrivalLane="218680176#0_1" arrivalPos="98.94" arrivalSpeed="11.36" duration="90.00" routeLength="693.09" waitingTime="16.00" waitingCount="1" stopTime="0.00" timeLoss="30.75" rerouteNo="0" devices="tripinfo_60" vType="DEFAULT_VEHTYPE" speedFactor="0.87" vaporized=""/>
    <tripinfo id="47" depart="100.00" departLane="-218680176#1_0" departPos="5.10" departSpeed="0.00" departDelay="0.47" arrival="219.00" arrivalLane="210831347#0_0" arrivalPos="149.88" arrivalSpeed="14.42" duration="119.00" routeLength="560.58" waitingTime="60.00" waitingCount="3" stopTime="0.00" timeLoss="78.38" rerouteNo="0" devices="tripinfo_47" vType="DEFAULT_VEHTYPE" speedFactor="1.04" vaporized=""/>
    <tripinfo id="74" depart="157.00" departLane="-226276377#1_0" departPos="5.10" departSpeed="0.00" departDelay="0.29" arrival="232.00" arrivalLane="210831345#1_0" arrivalPos="264.29" arrivalSpeed="14.18" duration="75.00" routeLength="977.93" waitingTime="0.00" waitingCount="0" stopTime="0.00" timeLoss="7.92" rerouteNo="0" devices="tripinfo_74" vType="DEFAULT_VEHTYPE" speedFactor="1.02" vaporized=""/>
    <tripinfo id="78" depart="166.00" departLane="-661251539_0" departPos="5.10" departSpeed="0.00" departDelay="0.82" arrival="232.00" arrivalLane="226276377#0_0" arrivalPos="135.52" arrivalSpeed="13.91" duration="66.00" routeLength="783.10" waitingTime="0.00" waitingCount="0" stopTime="0.00" timeLoss="12.80" rerouteNo="0" devices="tripinfo_78" vType="DEFAULT_VEHTYPE" speedFactor="1.03" vaporized=""/>
    <tripinfo id="43" depart="92.00" departLane="E8_0" departPos="5.10" departSpeed="0.00" departDelay="0.94" arrival="237.00" arrivalLane="218680176#0_1" arrivalPos="98.94" arrivalSpeed="16.06" duration="145.00" routeLength="1637.20" waitingTime="27.00" waitingCount="1" stopTime="0.00" timeLoss="47.19" rerouteNo="0" devices="tripinfo_43" vType="DEFAULT_VEHTYPE" speedFactor="1.18" vaporized=""/>
    <tripinfo id="88" depart="187.00" departLane="-218680176#1_0" departPos="5.10" departSpeed="0.00" departDelay="0.65" arrival="240.00" arrivalLane="210831347#0_0" arrivalPos="149.88" arrivalSpeed="12.42" duration="53.00" routeLength="560.58" waitingTime="0.00" waitingCount="0" stopTime="0.00" timeLoss="7.66" rerouteNo="0" devices="tripinfo_88" vType="DEFAULT_VEHTYPE" speedFactor="0.94" vaporized=""/>
    <tripinfo id="38" depart="81.00" departLane="E8_0" departPos="5.10" departSpeed="0.00" departDelay="0.53" arrival="242.00" arrivalLane="218680176#0_1" arrivalPos="98.94" arrivalSpeed="14.21" duration="161.00" routeLength="1637.20" waitingTime="29.00" waitingCount="1" stopTime="0.00" timeLoss="48.54" rerouteNo="0" devices="tripinfo_38" vType="DEFAULT_VEHTYPE" speedFactor="1.02" vaporized=""/>
    <tripinfo id="41" depart="87.00" departLane="65746828#0_0" departPos="5.10" departSpeed="0.00" departDelay="0.18" arrival="242.00" arrivalLane="450554042#0_0" arrivalPos="622.66" arrivalSpeed="17.35" duration="155.00" routeLength="1340.72" waitingTime="59.00" waitingCount="3" stopTime="0.00" timeLoss="79.72" rerouteNo="0" devices="tripinfo_41" vType="DEFAULT_VEHTYPE" speedFactor="1.11" vaporized=""/>
    <tripinfo id="75" depart="159.00" departLane="E8_0" departPos="5.10" departSpeed="0.00" departDelay="0.18" arrival="242.00" arrivalLane="226276377#0_1" arrivalPos="135.52" arrivalSpeed="14.18" duration="83.00" routeLength="784.51" waitingTime="18.00" waitingCount="1" stopTime="0.00" timeLoss="28.88" rerouteNo="0" devices="tripinfo_75" vType="DEFAULT_VEHTYPE" speedFactor="1.05" vaporized=""/>
    <tripinfo id="85" depart="180.00" departLane="E8_0" departPos="5.10" departSpeed="0.00" departDelay="0.00" arrival="245.00" arrivalLane="226276377#0_1" arrivalPos="135.52" arrivalSpeed="13.69" duration="65.00" routeLength="784.51" waitingTime="0.00" waitingCount="0" stopTime="0.00" timeLoss="9.10" rerouteNo="0" devices="tripinfo_85" vType="DEFAULT_VEHTYPE" speedFactor="1.03" vaporized=""/>
    <tripinfo id="76" depart="161.00" departLane="-661251539_0" departPos="5.10" departSpeed="0.00" departDelay="0.06" arrival="250.00" arrivalLane="218680176#0_1" arrivalPos="98.94" arrivalSpeed="13.13" duration="89.00" routeLength="1001.21" waitingTime="2.00" waitingCount="1" stopTime="0.00" timeLoss="13.42" rerouteNo="0" devices="tripinfo_76" vType="DEFAULT_VEHTYPE" speedFactor="0.98" vaporized=""/>
    <tripinfo id="26" depart="56.00" departLane="-231177697#2_0" departPos="5.10" departSpeed="0.00" departDelay="0.94" arrival="254.00" arrivalLane="450554042#0_0" arrivalPos="622.66" arrivalSpeed="13.06" duration="198.00" routeLength="1613.58" waitingTime="50.00" waitingCount="3" stopTime="0.00" timeLoss="74.26" rerouteNo="0" devices="tripinfo_26" vType="DEFAULT_VEHTYPE" speedFactor="0.83" vaporized=""/>
    <tripinfo id="57" depart="121.00" departLane="E8_0" departPos="5.10" departSpeed="0.00" departDelay="0.29" arrival="254.00" arrivalLane="39907424_0" arrivalPos="316.44" arrivalSpeed="14.02" duration="133.00" routeLength="1303.68" waitingTime="28.00" waitingCount="1" stopTime="0.00" timeLoss="43.29" rerouteNo="0" devices="tripinfo_57" vType="DEFAULT_VEHTYPE" speedFactor="1.01" vaporized=""/>
    <tripinfo id="49" depart="105.00" departLane="E8_0" departPos="5.10" departSpeed="0.00" departDelay="1.24" arrival="258.00" arrivalLane="39907424_0" arrivalPos="316.44" arrivalSpeed="12.42" duration="153.00" routeLength="1303.68" waitingTime="45.00" waitingCount="1" stopTime="0.00" timeLoss="60.28" rerouteNo="0" devices="tripinfo_49" vType="DEFAULT_VEHTYPE" speedFactor="0.98" vaporized=""/>
    <tripinfo id="9" depart="20.00" departLane="978867529_0" departPos="5.10" departSpeed="0.00" departDelay="0.94" arrival="260.00" arrivalLane="-256961141#1_1" arrivalPos="204.72" arrivalSpeed="14.69" duration="240.00" routeLength="1459.36" waitingTime="125.00" waitingCount="2" stopTime="0.00" timeLoss="150.14" rerouteNo="0" devices="tripinfo_9" vType="DEFAULT_VEHTYPE" speedFactor="1.07" vaporized=""/>
    <tripinfo id="61" depart="130.00" departLane="978867529_0" departPos="5.10" departSpeed="0.00" departDelay="0.82" arrival="263.00" arrivalLane="218680176#0_0" arrivalPos="98.94" arrivalSpeed="13.30" duration="133.00" routeLength="442.15" waitingTime="94.00" waitingCount="1" stopTime="0.00" timeLoss="105.19" rerouteNo="0" devices="tripinfo_61" vType="DEFAULT_VEHTYPE" speedFactor="1.04" vaporized=""/>
    <tripinfo id="28" depart="60.00" departLane="-226276377#1_0" departPos="5.10" departSpeed="0.00" departDelay="0.71" arrival="264.00" arrivalLane="231177697#0_0" arrivalPos="74.44" arrivalSpeed="14.54" duration="204.00" routeLength="1114.63" waitingTime="103.00" waitingCount="3" stopTime="0.00" timeLoss="132.27" rerouteNo="0" devices="tripinfo_28" vType="DEFAULT_VEHTYPE" speedFactor="1.09" vaporized=""/>
    <tripinfo id="25" depart="53.00" departLane="-661251539_0" departPos="5.10" departSpeed="0.00" departDelay="0.06" arrival="278.00" arrivalLane="153964138#0_0" arrivalPos="337.99" arrivalSpeed="16.29" duration="225.00" routeLength="1239.04" waitingTime="123.00" waitingCount="2" stopTime="0.00" timeLoss="142.96" rerouteNo="0" devices="tripinfo_25" vType="DEFAULT_VEHTYPE" speedFactor="1.05" vaporized=""/>
    <tripinfo id="42" depart="89.00" departLane="-661251539_0" departPos="5.10" departSpeed="0.00" departDelay="0.06" arrival="278.00" arrivalLane="153964138#0_2" arrivalPos="337.99" arrivalSpeed="16.22" duration="189.00" routeLength="1239.04" waitingTime="90.00" waitingCount="1" stopTime="0.00" timeLoss="106.88" rerouteNo="0" devices="tripinfo_42" vType="DEFAULT_VEHTYPE" speedFactor="1.05" vaporized=""/>
    <tripinfo id="11" depart="24.00" departLane="-661251539_0" departPos="5.10" departSpeed="0.00" departDelay="0.71" arrival="279.00" arrivalLane="153964138#0_0" arrivalPos="337.99" arrivalSpeed="16.03" duration="255.00" routeLength="1239.04" waitingTime="146.00" waitingCount="2" stopTime="0.00" timeLoss="167.35" rerouteNo="0" devices="tripinfo_11" vType="DEFAULT_VEHTYPE" speedFactor="0.98" vaporized=""/>
    <tripinfo id="72" depart="153.00" departLane="-661251539_0" departPos="5.10" departSpeed="0.00" departDelay="0.53" arrival="280.00" arrivalLane="153964138#0_2" arrivalPos="337.99" arrivalSpeed="16.37" duration="127.00" routeLength="1239.04" waitingTime="20.00" waitingCount="2" stopTime="0.00" timeLoss="41.30" rerouteNo="0" devices="tripinfo_72" vType="DEFAULT_VEHTYPE" speedFactor="1.00" vaporized=""/>
    <tripinfo id="69" depart="147.00" departLane="666135205#0_0" departPos="5.10" departSpeed="0.00" departDelay="0.88" arrival="281.00" arrivalLane="153964138#0_1" arrivalPos="337.99" arrivalSpeed="14.99" duration="134.00" routeLength="924.87" waitingTime="56.00" waitingCount="1" stopTime="0.00" timeLoss="67.10" rerouteNo="0" devices="tripinfo_69" vType="DEFAULT_VEHTYPE" speedFactor="0.94" vaporized=""/>
    <tripinfo id="110" depart="233.00" departLane="E8_0" departPos="5.10" departSpeed="0.00" departDelay="0.06" arrival="290.00" arrivalLane="226276377#0_1" arrivalPos="135.52" arrivalSpeed="15.58" duration="57.00" routeLength="784.51" waitingTime="0.00" waitingCount="0" stopTime="0.00" timeLoss="9.23" rerouteNo="0" devices="tripinfo_110" vType="DEFAULT_VEHTYPE" speedFactor="1.20" vaporized=""/>
    <tripinfo id="53" depart="113.00" departLane="-226276377#1_0" departPos="5.10" departSpeed="0.00" departDelay="0.76" arrival="297.00" arrivalLane="210831347#0_1" arrivalPos="149.88" arrivalSpeed="10.47" duration="184.00" routeLength="888.52" waitingTime="96.00" waitingCount="2" stopTime="0.00" timeLoss="110.55" rerouteNo="0" devices="tripinfo_53" vType="DEFAULT_VEHTYPE" speedFactor="0.83" vaporized=""/>
    <tripinfo id="103" depart="219.00" departLane="-661251539_0" departPos="5.10" departSpeed="0.00" departDelay="0.88" arrival="298.00" arrivalLane="-256961141#1_1" arrivalPos="204.72" arrivalSpeed="13.59" duration="79.00" routeLength="872.91" waitingTime="7.00" waitingCount="1" stopTime="0.00" timeLoss="19.45" rerouteNo="0" devices="tripinfo_103" vType="DEFAULT_VEHTYPE" speedFactor="1.02" vaporized=""/>
    <tripinfo id="114" depart="242.00" departLane="-226276377#1_0" departPos="5.10" departSpeed="0.00" departDelay="0.59" arrival="298.00" arrivalLane="450554042#0_0" arrivalPos="622.66" arrivalSpeed="15.45" duration="56.00" routeLength="763.53" waitingTime="0.00" waitingCount="0" stopTime="0.00" timeLoss="7.41" rerouteNo="0" devices="tripinfo_114" vType="DEFAULT_VEHTYPE" speedFactor="0.99" vaporized=""/>
    <tripinfo id="92" depart="195.00" departLane="-661251539_0" departPos="5.10" departSpeed="0.00" departDelay="0.18" arrival="299.00" arrivalLane="210831347#0_1" arrivalPos="149.88" arrivalSpeed="14.07" duration="104.00" routeLength="731.18" waitingTime="29.00" waitingCount="2" stopTime="0.00" timeLoss="51.38" rerouteNo="0" devices="tripinfo_92" vType="DEFAULT_VEHTYPE" speedFactor="1.03" vaporized=""/>
    <tripinfo id="115" depart="244.00" departLane="-218680176#1_0" departPos="5.10" departSpeed="0.00" departDelay="0.47" arrival="303.00" arrivalLane="153964138#0_2" arrivalPos="337.99" arrivalSpeed="18.12" duration="59.00" routeLength="462.27" waitingTime="19.00" waitingCount="1" stopTime="0.00" timeLoss="31.58" rerouteNo="0" devices="tripinfo_115" vType="DEFAULT_VEHTYPE" speedFactor="1.11" vaporized=""/>
    <tripinfo id="62" depart="132.00" departLane="-218680176#1_0" departPos="5.10" departSpeed="0.00" departDelay="0.71" arrival="304.00" arrivalLane="210831345#1_1" arrivalPos="264.29" arrivalSpeed="13.48" duration="172.00" routeLength="699.94" waitingTime="101.00" waitingCount="2" stopTime="0.00" timeLoss="120.11" rerouteNo="0" devices="tripinfo_62" vType="DEFAULT_VEHTYPE" speedFactor="1.01" vaporized=""/>
    <tripinfo id="86" depart="183.00" departLane="256961141#0_0" departPos="5.10" departSpeed="0.00" departDelay="0.88" arrival="306.00" arrivalLane="39907424_0" arrivalPos="316.44" arrivalSpeed="12.37" duration="123.00" routeLength="873.95" waitingTime="45.00" waitingCount="1" stopTime="0.00" timeLoss="60.69" rerouteNo="0" devices="tripinfo_86" vType="DEFAULT_VEHTYPE" speedFactor="0.96" vaporized=""/>
    <tripinfo id="93" depart="197.00" departLane="978867529_0" departPos="5.10" departSpeed="0.00" departDelay="0.06" arrival="306.00" arrivalLane="210831345#1_1" arrivalPos="264.29" arrivalSpeed="13.09" duration="109.00" routeLength="951.92" waitingTime="27.00" waitingCount="1" stopTime="0.00" timeLoss="41.71" rerouteNo="0" devices="tripinfo_93" vType="DEFAULT_VEHTYPE" speedFactor="0.98" vaporized=""/>
    <tripinfo id="128" depart="272.00" departLane="-218680176#1_0" departPos="5.10" departSpeed="0.00" departDelay="0.94" arrival="307.00" arrivalLane="153964138#0_2" arrivalPos="337.99" arrivalSpeed="15.54" duration="35.00" routeLength="462.27" waitingTime="0.00" waitingCount="0" stopTime="0.00" timeLoss="4.85" rerouteNo="0" devices="tripinfo_128" vType="DEFAULT_VEHTYPE" speedFactor="0.99" vaporized=""/>