<?xml version="1.0" encoding="UTF-8"?>

<!-- generated on 2024-09-02 16:00:57 by Eclipse SUMO sumo Version 1.20.0
<configuration xmlns:xsi="http://www.w3.org/2001/XMLSchema-instance" xsi:noNamespaceSchemaLocation="http://sumo.dlr.de/xsd/sumoConfiguration.xsd">

    <input>
        <net-file value="c:\self\School\Master\Disertation\code\RESCO\resco_benchmark\environments/unirii/osm.net.xml.gz"/>
        <route-files value="c:\self\School\Master\Disertation\code\RESCO\resco_benchmark\environments/unirii/osm.passenger.trips.xml"/>
        <additional-files value="c:\self\School\Master\Disertation\code\RESCO\resco_benchmark\environments/unirii/osm.poly.xml.gz"/>
    </input>

    <output>
        <tripinfo-output value="C:\self\School\Master\Disertation\code\RESCO\results\IDQN-tr0-unirii-0-drq-wait\tripinfo_28.xml"/>
        <tripinfo-output.write-unfinished value="true"/>
    </output>

    <processing>
        <ignore-route-errors value="true"/>
        <time-to-teleport value="-1"/>
    </processing>

    <routing>
        <device.rerouting.adaptation-steps value="18"/>
        <device.rerouting.adaptation-interval value="10"/>
    </routing>

    <report>
        <verbose value="true"/>
        <no-warnings value="True"/>
        <duration-log.statistics value="true"/>
        <no-step-log value="True"/>
    </report>

    <traci_server>
        <remote-port value="63304"/>
    </traci_server>

    <random_number>
        <random value="true"/>
    </random_number>

    <gui_only>
        <gui-settings-file value="c:\self\School\Master\Disertation\code\RESCO\resco_benchmark\environments/unirii/osm.view.xml"/>
    </gui_only>

</configuration>
-->

<tripinfos xmlns:xsi="http://www.w3.org/2001/XMLSchema-instance" xsi:noNamespaceSchemaLocation="http://sumo.dlr.de/xsd/tripinfo_file.xsd">
    <tripinfo id="10" depart="23.00" departLane="978867529_0" departPos="5.10" departSpeed="0.00" departDelay="1.82" arrival="63.00" arrivalLane="231177697#0_1" arrivalPos="74.44" arrivalSpeed="12.38" duration="40.00" routeLength="437.06" waitingTime="0.00" waitingCount="0" stopTime="0.00" timeLoss="8.33" rerouteNo="0" devices="tripinfo_10" vType="DEFAULT_VEHTYPE" speedFactor="0.90" vaporized=""/>
    <tripinfo id="15" depart="33.00" departLane="978867529_0" departPos="5.10" departSpeed="0.00" departDelay="1.24" arrival="70.00" arrivalLane="231177697#0_1" arrivalPos="74.44" arrivalSpeed="11.68" duration="37.00" routeLength="437.06" waitingTime="0.00" waitingCount="0" stopTime="0.00" timeLoss="5.24" rerouteNo="0" devices="tripinfo_15" vType="DEFAULT_VEHTYPE" speedFactor="0.90" vaporized=""/>
    <tripinfo id="4" depart="9.00" departLane="-661251539_0" departPos="5.10" departSpeed="0.00" departDelay="0.53" arrival="76.00" arrivalLane="-256961141#1_1" arrivalPos="204.72" arrivalSpeed="13.90" duration="67.00" routeLength="872.91" waitingTime="0.00" waitingCount="0" stopTime="0.00" timeLoss="8.60" rerouteNo="0" devices="tripinfo_4" vType="DEFAULT_VEHTYPE" speedFactor="1.05" vaporized=""/>
    <tripinfo id="5" depart="11.00" departLane="-226276377#1_0" departPos="5.10" departSpeed="0.00" departDelay="0.41" arrival="95.00" arrivalLane="218680176#0_1" arrivalPos="98.94" arrivalSpeed="15.87" duration="84.00" routeLength="1158.55" waitingTime="2.00" waitingCount="1" stopTime="0.00" timeLoss="14.12" rerouteNo="0" devices="tripinfo_5" vType="DEFAULT_VEHTYPE" speedFactor="1.16" vaporized=""/>
    <tripinfo id="32" depart="68.00" departLane="978867529_0" departPos="5.10" departSpeed="0.00" departDelay="0.24" arrival="102.00" arrivalLane="231177697#0_1" arrivalPos="74.44" arrivalSpeed="13.42" duration="34.00" routeLength="437.06" waitingTime="0.00" waitingCount="0" stopTime="0.00" timeLoss="4.86" rerouteNo="0" devices="tripinfo_32" vType="DEFAULT_VEHTYPE" speedFactor="1.00" vaporized=""/>
    <tripinfo id="40" depart="85.00" departLane="65746828#0_0" departPos="5.10" departSpeed="0.00" departDelay="0.29" arrival="120.00" arrivalLane="210831345#1_0" arrivalPos="264.29" arrivalSpeed="13.96" duration="35.00" routeLength="446.75" waitingTime="0.00" waitingCount="0" stopTime="0.00" timeLoss="4.71" rerouteNo="0" devices="tripinfo_40" vType="DEFAULT_VEHTYPE" speedFactor="1.07" vaporized=""/>
    <tripinfo id="50" depart="106.00" departLane="-218680176#1_0" departPos="5.10" departSpeed="0.00" departDelay="0.12" arrival="125.00" arrivalLane="231177697#0_0" arrivalPos="74.44" arrivalSpeed="13.81" duration="19.00" routeLength="205.97" waitingTime="0.00" waitingCount="0" stopTime="0.00" timeLoss="4.02" rerouteNo="0" devices="tripinfo_50" vType="DEFAULT_VEHTYPE" speedFactor="1.00" vaporized=""/>
    <tripinfo id="35" depart="75.00" departLane="-226276377#1_0" departPos="5.10" departSpeed="0.00" departDelay="0.88" arrival="130.00" arrivalLane="450554042#0_0" arrivalPos="622.66" arrivalSpeed="16.76" duration="55.00" routeLength="763.53" waitingTime="0.00" waitingCount="0" stopTime="0.00" timeLoss="7.28" rerouteNo="0" devices="tripinfo_35" vType="DEFAULT_VEHTYPE" speedFactor="1.02" vaporized=""/>
    <tripinfo id="27" depart="58.00" departLane="65746828#0_0" departPos="5.10" departSpeed="0.00" departDelay="0.82" arrival="141.00" arrivalLane="226276377#0_0" arrivalPos="135.52" arrivalSpeed="13.67" duration="83.00" routeLength="841.69" waitingTime="14.00" waitingCount="2" stopTime="0.00" timeLoss="29.07" rerouteNo="0" devices="tripinfo_27" vType="DEFAULT_VEHTYPE" speedFactor="1.04" vaporized=""/>
    <tripinfo id="3" depart="7.00" departLane="E8_0" departPos="5.10" departSpeed="0.00" departDelay="0.65" arrival="147.00" arrivalLane="-256961141#1_0" arrivalPos="204.72" arrivalSpeed="12.32" duration="140.00" routeLength="832.89" waitingTime="65.00" waitingCount="1" stopTime="0.00" timeLoss="77.02" rerouteNo="0" devices="tripinfo_3" vType="DEFAULT_VEHTYPE" speedFactor="0.97" vaporized=""/>
    <tripinfo id="1" depart="3.00" departLane="-231177697#2_0" departPos="5.10" departSpeed="0.00" departDelay="0.88" arrival="150.00" arrivalLane="210831345#1_1" arrivalPos="264.29" arrivalSpeed="14.93" duration="147.00" routeLength="696.92" waitingTime="92.00" waitingCount="1" stopTime="0.00" timeLoss="103.10" rerouteNo="0" devices="tripinfo_1" vType="DEFAULT_VEHTYPE" speedFactor="1.16" vaporized=""/>
    <tripinfo id="22" depart="47.00" departLane="-218680176#1_0" departPos="5.10" departSpeed="0.00" departDelay="0.41" arrival="154.00" arrivalLane="210831345#1_1" arrivalPos="264.29" arrivalSpeed="14.81" duration="107.00" routeLength="699.94" waitingTime="41.00" waitingCount="3" stopTime="0.00" timeLoss="59.07" rerouteNo="0" devices="tripinfo_22" vType="DEFAULT_VEHTYPE" speedFactor="1.08" vaporized=""/>
    <tripinfo id="6" depart="13.00" departLane="-218680176#1_0" departPos="5.10" departSpeed="0.00" departDelay="0.29" arrival="157.00" arrivalLane="153964138#0_1" arrivalPos="337.99" arrivalSpeed="14.55" duration="144.00" routeLength="462.27" waitingTime="101.00" waitingCount="1" stopTime="0.00" timeLoss="111.02" rerouteNo="0" devices="tripinfo_6" vType="DEFAULT_VEHTYPE" speedFactor="0.92" vaporized=""/>
    <tripinfo id="23" depart="50.00" departLane="-218680176#1_0" departPos="5.10" departSpeed="0.00" departDelay="1.29" arrival="158.00" arrivalLane="210831345#1_1" arrivalPos="264.29" arrivalSpeed="13.32" duration="108.00" routeLength="699.94" waitingTime="35.00" waitingCount="3" stopTime="0.00" timeLoss="54.77" rerouteNo="0" devices="tripinfo_23" vType="DEFAULT_VEHTYPE" speedFactor="0.98" vaporized=""/>
    <tripinfo id="2" depart="5.00" departLane="666135205#0_0" departPos="5.10" departSpeed="0.00" departDelay="0.76" arrival="165.00" arrivalLane="231177697#0_0" arrivalPos="74.44" arrivalSpeed="12.45" duration="160.00" routeLength="649.17" waitingTime="92.00" waitingCount="2" stopTime="0.00" timeLoss="109.70" rerouteNo="0" devices="tripinfo_2" vType="DEFAULT_VEHTYPE" speedFactor="0.97" vaporized=""/>
    <tripinfo id="61" depart="130.00" departLane="978867529_0" departPos="5.10" departSpeed="0.00" departDelay="0.82" arrival="168.00" arrivalLane="218680176#0_0" arrivalPos="98.94" arrivalSpeed="14.34" duration="38.00" routeLength="442.15" waitingTime="0.00" waitingCount="0" stopTime="0.00" timeLoss="10.35" rerouteNo="0" devices="tripinfo_61" vType="DEFAULT_VEHTYPE" speedFactor="1.05" vaporized=""/>
    <tripinfo id="31" depart="66.00" departLane="65746828#0_0" departPos="5.10" departSpeed="0.00" departDelay="0.35" arrival="169.00" arrivalLane="231177697#0_0" arrivalPos="74.44" arrivalSpeed="11.15" duration="103.00" routeLength="558.79" waitingTime="37.00" waitingCount="2" stopTime="0.00" timeLoss="52.35" rerouteNo="0" devices="tripinfo_31" vType="DEFAULT_VEHTYPE" speedFactor="0.83" vaporized=""/>
    <tripinfo id="11" depart="24.00" departLane="-661251539_0" departPos="5.10" departSpeed="0.00" departDelay="0.71" arrival="176.00" arrivalLane="153964138#0_0" arrivalPos="337.99" arrivalSpeed="18.36" duration="152.00" routeLength="1239.04" waitingTime="59.00" waitingCount="1" stopTime="0.00" timeLoss="76.98" rerouteNo="0" devices="tripinfo_11" vType="DEFAULT_VEHTYPE" speedFactor="1.14" vaporized=""/>
    <tripinfo id="7" depart="15.00" departLane="65746828#0_0" departPos="5.10" departSpeed="0.00" departDelay="0.18" arrival="190.00" arrivalLane="218680176#0_1" arrivalPos="98.94" arrivalSpeed="13.52" duration="175.00" routeLength="602.71" waitingTime="116.00" waitingCount="2" stopTime="0.00" timeLoss="131.37" rerouteNo="0" devices="tripinfo_7" vType="DEFAULT_VEHTYPE" speedFactor="1.02" vaporized=""/>
    <tripinfo id="51" depart="108.00" departLane="666135205#0_0" departPos="5.10" departSpeed="0.00" departDelay="0.00" arrival="192.00" arrivalLane="218680176#0_1" arrivalPos="98.94" arrivalSpeed="13.21" duration="84.00" routeLength="693.09" waitingTime="17.00" waitingCount="2" stopTime="0.00" timeLoss="31.39" rerouteNo="0" devices="tripinfo_51" vType="DEFAULT_VEHTYPE" speedFactor="0.98" vaporized=""/>
    <tripinfo id="47" depart="100.00" departLane="-218680176#1_0" departPos="5.10" departSpeed="0.00" departDelay="0.47" arrival="194.00" arrivalLane="210831347#0_0" arrivalPos="149.88" arrivalSpeed="14.52" duration="94.00" routeLength="560.58" waitingTime="37.00" waitingCount="1" stopTime="0.00" timeLoss="55.01" rerouteNo="0" devices="tripinfo_47" vType="DEFAULT_VEHTYPE" speedFactor="1.08" vaporized=""/>
    <tripinfo id="60" depart="128.00" departLane="666135205#0_0" departPos="5.10" departSpeed="0.00" departDelay="0.94" arrival="200.00" arrivalLane="218680176#0_1" arrivalPos="98.94" arrivalSpeed="10.83" duration="72.00" routeLength="693.09" waitingTime="0.00" waitingCount="0" stopTime="0.00" timeLoss="7.73" rerouteNo="0" devices="tripinfo_60" vType="DEFAULT_VEHTYPE" speedFactor="0.80" vaporized=""/>
    <tripinfo id="46" depart="98.00" departLane="978867529_0" departPos="5.10" departSpeed="0.00" departDelay="0.59" arrival="202.00" arrivalLane="210831347#0_0" arrivalPos="149.88" arrivalSpeed="11.94" duration="104.00" routeLength="812.56" waitingTime="27.00" waitingCount="1" stopTime="0.00" timeLoss="41.35" rerouteNo="0" devices="tripinfo_46" vType="DEFAULT_VEHTYPE" speedFactor="0.90" vaporized=""/>
    <tripinfo id="49" depart="105.00" departLane="E8_0" departPos="5.10" departSpeed="0.00" departDelay="1.24" arrival="216.00" arrivalLane="39907424_0" arrivalPos="316.44" arrivalSpeed="11.71" duration="111.00" routeLength="1303.68" waitingTime="0.00" waitingCount="0" stopTime="0.00" timeLoss="11.43" rerouteNo="0" devices="tripinfo_49" vType="DEFAULT_VEHTYPE" speedFactor="0.91" vaporized=""/>
    <tripinfo id="30" depart="64.00" departLane="E8_0" departPos="5.10" departSpeed="0.00" departDelay="0.47" arrival="217.00" arrivalLane="226276377#0_1" arrivalPos="135.52" arrivalSpeed="14.51" duration="153.00" routeLength="784.51" waitingTime="90.00" waitingCount="1" stopTime="0.00" timeLoss="99.66" rerouteNo="0" devices="tripinfo_30" vType="DEFAULT_VEHTYPE" speedFactor="1.08" vaporized=""/>
    <tripinfo id="75" depart="159.00" departLane="E8_0" departPos="5.10" departSpeed="0.00" departDelay="0.18" arrival="219.00" arrivalLane="226276377#0_1" arrivalPos="135.52" arrivalSpeed="14.32" duration="60.00" routeLength="784.51" waitingTime="0.00" waitingCount="0" stopTime="0.00" timeLoss="8.57" rerouteNo="0" devices="tripinfo_75" vType="DEFAULT_VEHTYPE" speedFactor="1.12" vaporized=""/>
    <tripinfo id="0" depart="0.00" departLane="65746828#0_0" departPos="5.10" departSpeed="0.00" departDelay="0.00" arrival="221.00" arrivalLane="-256961141#1_1" arrivalPos="204.72" arrivalSpeed="15.14" duration="221.00" routeLength="931.50" waitingTime="150.00" waitingCount="2" stopTime="0.00" timeLoss="167.12" rerouteNo="0" devices="tripinfo_0" vType="DEFAULT_VEHTYPE" speedFactor="1.17" vaporized=""/>
    <tripinfo id="16" depart="34.00" departLane="256961141#0_0" departPos="5.10" departSpeed="0.00" departDelay="0.12" arrival="223.00" arrivalLane="450554042#0_0" arrivalPos="622.66" arrivalSpeed="15.38" duration="189.00" routeLength="853.74" waitingTime="123.00" waitingCount="1" stopTime="0.00" timeLoss="133.08" rerouteNo="0" devices="tripinfo_16" vType="DEFAULT_VEHTYPE" speedFactor="0.97" vaporized=""/>
    <tripinfo id="54" depart="115.00" departLane="256961141#0_0" departPos="5.10" departSpeed="0.00" departDelay="0.65" arrival="223.00" arrivalLane="450554042#0_1" arrivalPos="622.66" arrivalSpeed="16.46" duration="108.00" routeLength="853.74" waitingTime="43.00" waitingCount="1" stopTime="0.00" timeLoss="56.06" rerouteNo="0" devices="tripinfo_54" vType="DEFAULT_VEHTYPE" speedFactor="1.06" vaporized=""/>
    <tripinfo id="79" depart="168.00" departLane="-231177697#2_0" departPos="5.10" departSpeed="0.00" departDelay="0.71" arrival="224.00" arrivalLane="153964138#0_0" arrivalPos="337.99" arrivalSpeed="16.57" duration="56.00" routeLength="417.38" waitingTime="17.00" waitingCount="1" stopTime="0.00" timeLoss="28.37" rerouteNo="0" devices="tripinfo_79" vType="DEFAULT_VEHTYPE" speedFactor="1.00" vaporized=""/>
    <tripinfo id="20" depart="43.00" departLane="666135205#0_0" departPos="5.10" departSpeed="0.00" departDelay="0.65" arrival="228.00" arrivalLane="-256961141#1_1" arrivalPos="204.72" arrivalSpeed="10.67" duration="185.00" routeLength="1068.72" waitingTime="85.00" waitingCount="2" stopTime="0.00" timeLoss="100.99" rerouteNo="0" devices="tripinfo_20" vType="DEFAULT_VEHTYPE" speedFactor="0.85" vaporized=""/>
    <tripinfo id="64" depart="136.00" departLane="978867529_0" departPos="5.10" departSpeed="0.00" departDelay="0.47" arrival="232.00" arrivalLane="39907424_0" arrivalPos="316.44" arrivalSpeed="13.99" duration="96.00" routeLength="1216.15" waitingTime="0.00" waitingCount="0" stopTime="0.00" timeLoss="14.44" rerouteNo="0" devices="tripinfo_64" vType="DEFAULT_VEHTYPE" speedFactor="1.01" vaporized=""/>
    <tripinfo id="44" depart="94.00" departLane="-218680176#1_0" departPos="5.10" departSpeed="0.00" departDelay="0.82" arrival="237.00" arrivalLane="-256961141#1_1" arrivalPos="204.72" arrivalSpeed="12.60" duration="143.00" routeLength="1207.38" waitingTime="46.00" waitingCount="1" stopTime="0.00" timeLoss="60.41" rerouteNo="0" devices="tripinfo_44" vType="DEFAULT_VEHTYPE" speedFactor="0.99" vaporized=""/>
    <tripinfo id="33" depart="70.00" departLane="-231177697#2_0" departPos="5.10" departSpeed="0.00" departDelay="0.12" arrival="239.00" arrivalLane="-256961141#1_1" arrivalPos="204.72" arrivalSpeed="15.79" duration="169.00" routeLength="1204.36" waitingTime="68.00" waitingCount="2" stopTime="0.00" timeLoss="99.53" rerouteNo="0" devices="tripinfo_33" vType="DEFAULT_VEHTYPE" speedFactor="1.19" vaporized=""/>
    <tripinfo id="13" depart="28.00" departLane="-218680176#1_0" departPos="5.10" departSpeed="0.00" departDelay="0.47" arrival="240.00" arrivalLane="-256961141#1_1" arrivalPos="204.72" arrivalSpeed="13.62" duration="212.00" routeLength="1207.38" waitingTime="107.00" waitingCount="2" stopTime="0.00" timeLoss="133.21" rerouteNo="0" devices="tripinfo_13" vType="DEFAULT_VEHTYPE" speedFactor="1.04" vaporized=""/>
    <tripinfo id="68" depart="144.00" departLane="-218680176#1_0" departPos="5.10" departSpeed="0.00" departDelay="0.00" arrival="241.00" arrivalLane="231177697#0_0" arrivalPos="74.44" arrivalSpeed="13.51" duration="97.00" routeLength="205.97" waitingTime="67.00" waitingCount="2" stopTime="0.00" timeLoss="82.18" rerouteNo="0" devices="tripinfo_68" vType="DEFAULT_VEHTYPE" speedFactor="1.04" vaporized=""/>
    <tripinfo id="12" depart="26.00" departLane="E8_0" departPos="5.10" departSpeed="0.00" departDelay="0.59" arrival="244.00" arrivalLane="210831347#0_1" arrivalPos="149.88" arrivalSpeed="13.73" duration="218.00" routeLength="1367.17" waitingTime="108.00" waitingCount="2" stopTime="0.00" timeLoss="126.22" rerouteNo="0" devices="tripinfo_12" vType="DEFAULT_VEHTYPE" speedFactor="1.04" vaporized=""/>
    <tripinfo id="58" depart="123.00" departLane="-231177697#2_0" departPos="5.10" departSpeed="0.00" departDelay="0.18" arrival="244.00" arrivalLane="226276377#0_0" arrivalPos="135.52" arrivalSpeed="12.55" duration="121.00" routeLength="1114.55" waitingTime="14.00" waitingCount="4" stopTime="0.00" timeLoss="43.99" rerouteNo="0" devices="tripinfo_58" vType="DEFAULT_VEHTYPE" speedFactor="0.98" vaporized=""/>
    <tripinfo id="29" depart="62.00" departLane="-226276377#1_0" departPos="5.10" departSpeed="0.00" departDelay="0.59" arrival="245.00" arrivalLane="210831347#0_1" arrivalPos="149.88" arrivalSpeed="13.81" duration="183.00" routeLength="888.52" waitingTime="108.00" waitingCount="2" stopTime="0.00" timeLoss="126.22" rerouteNo="0" devices="tripinfo_29" vType="DEFAULT_VEHTYPE" speedFactor="1.07" vaporized=""/>
    <tripinfo id="52" depart="111.00" departLane="-231177697#2_0" departPos="5.10" departSpeed="0.00" departDelay="0.88" arrival="246.00" arrivalLane="226276377#0_0" arrivalPos="135.52" arrivalSpeed="13.18" duration="135.00" routeLength="1114.55" waitingTime="27.00" waitingCount="3" stopTime="0.00" timeLoss="57.90" rerouteNo="0" devices="tripinfo_52" vType="DEFAULT_VEHTYPE" speedFactor="0.97" vaporized=""/>
    <tripinfo id="53" depart="113.00" departLane="-226276377#1_0" departPos="5.10" departSpeed="0.00" departDelay="0.76" arrival="248.00" arrivalLane="210831347#0_1" arrivalPos="149.88" arrivalSpeed="14.05" duration="135.00" routeLength="888.52" waitingTime="58.00" waitingCount="2" stopTime="0.00" timeLoss="77.63" rerouteNo="0" devices="tripinfo_53" vType="DEFAULT_VEHTYPE" speedFactor="1.07" vaporized=""/>
    <tripinfo id="45" depart="97.00" departLane="-218680176#1_0" departPos="5.10" departSpeed="0.00" departDelay="1.71" arrival="251.00" arrivalLane="226276377#0_0" arrivalPos="135.52" arrivalSpeed="12.70" duration="154.00" routeLength="1117.57" waitingTime="45.00" waitingCount="2" stopTime="0.00" timeLoss="71.08" rerouteNo="0" devices="tripinfo_45" vType="DEFAULT_VEHTYPE" speedFactor="0.92" vaporized=""/>
    <tripinfo id="18" depart="39.00" departLane="978867529_0" departPos="5.10" departSpeed="0.00" departDelay="0.88" arrival="253.00" arrivalLane="226276377#0_0" arrivalPos="135.52" arrivalSpeed="11.57" duration="214.00" routeLength="1369.55" waitingTime="83.00" waitingCount="3" stopTime="0.00" timeLoss="112.31" rerouteNo="0" devices="tripinfo_18" vType="DEFAULT_VEHTYPE" speedFactor="0.88" vaporized=""/>
    <tripinfo id="21" depart="45.00" departLane="-231177697#2_0" departPos="5.10" departSpeed="0.00" departDelay="0.53" arrival="253.00" arrivalLane="210831345#1_1" arrivalPos="264.29" arrivalSpeed="14.10" duration="208.00" routeLength="696.92" waitingTime="143.00" waitingCount="2" stopTime="0.00" timeLoss="158.21" rerouteNo="0" devices="tripinfo_21" vType="DEFAULT_VEHTYPE" speedFactor="1.04" vaporized=""/>
    <tripinfo id="14" depart="30.00" departLane="978867529_0" departPos="5.10" departSpeed="0.00" departDelay="0.35" arrival="255.00" arrivalLane="226276377#0_0" arrivalPos="135.52" arrivalSpeed="15.53" duration="225.00" routeLength="1369.55" waitingTime="98.00" waitingCount="2" stopTime="0.00" timeLoss="145.48" rerouteNo="0" devices="tripinfo_14" vType="DEFAULT_VEHTYPE" speedFactor="1.14" vaporized=""/>
    <tripinfo id="34" depart="72.00" departLane="-231177697#2_0" departPos="5.10" departSpeed="0.00" departDelay="0.00" arrival="255.00" arrivalLane="210831345#1_1" arrivalPos="264.29" arrivalSpeed="12.95" duration="183.00" routeLength="696.92" waitingTime="112.00" waitingCount="2" stopTime="0.00" timeLoss="131.89" rerouteNo="0" devices="tripinfo_34" vType="DEFAULT_VEHTYPE" speedFactor="1.01" vaporized=""/>
    <tripinfo id="19" depart="42.00" departLane="978867529_0" departPos="5.10" departSpeed="0.00" departDelay="1.76" arrival="257.00" arrivalLane="226276377#0_0" arrivalPos="135.52" arrivalSpeed="13.66" duration="215.00" routeLength="1369.55" waitingTime="84.00" waitingCount="2" stopTime="0.00" timeLoss="125.43" rerouteNo="0" devices="tripinfo_19" vType="DEFAULT_VEHTYPE" speedFactor="1.01" vaporized=""/>
    <tripinfo id="39" depart="83.00" departLane="-231177697#2_0" departPos="5.10" departSpeed="0.00" departDelay="0.41" arrival="257.00" arrivalLane="210831345#1_1" arrivalPos="264.29" arrivalSpeed="12.90" duration="174.00" routeLength="696.92" waitingTime="104.00" waitingCount="2" stopTime="0.00" timeLoss="122.70" rerouteNo="0" devices="tripinfo_39" vType="DEFAULT_VEHTYPE" speedFactor="1.00" vaporized=""/>
    <tripinfo id="78" depart="166.00" departLane="-661251539_0" departPos="5.10" departSpeed="0.00" departDelay="0.82" arrival="258.00" arrivalLane="226276377#0_0" arrivalPos="135.52" arrivalSpeed="15.21" duration="92.00" routeLength="783.10" waitingTime="22.00" waitingCount="1" stopTime="0.00" timeLoss="42.75" rerouteNo="0" devices="tripinfo_78" vType="DEFAULT_VEHTYPE" speedFactor="1.12" vaporized=""/>
    <tripinfo id="55" depart="117.00" departLane="978867529_0" departPos="5.10" departSpeed="0.00" departDelay="0.53" arrival="259.00" arrivalLane="210831345#1_1" arrivalPos="264.29" arrivalSpeed="13.32" duration="142.00" routeLength="951.92" waitingTime="54.00" waitingCount="3" stopTime="0.00" timeLoss="76.76" rerouteNo="0" devices="tripinfo_55" vType="DEFAULT_VEHTYPE" speedFactor="1.01" vaporized=""/>
    <tripinfo id="92" depart="195.00" departLane="-661251539_0" departPos="5.10" departSpeed="0.00" departDelay="0.18" arrival="260.00" arrivalLane="210831347#0_1" arrivalPos="149.88" arrivalSpeed="12.54" duration="65.00" routeLength="731.18" waitingTime="0.00" waitingCount="0" stopTime="0.00" timeLoss="10.39" rerouteNo="0" devices="tripinfo_92" vType="DEFAULT_VEHTYPE" speedFactor="0.99" vaporized=""/>
    <tripinfo id="91" depart="193.00" departLane="E8_0" departPos="5.10" departSpeed="0.00" departDelay="0.29" arrival="263.00" arrivalLane="-256961141#1_0" arrivalPos="204.72" arrivalSpeed="12.73" duration="70.00" routeLength="832.89" waitingTime="0.00" waitingCount="0" stopTime="0.00" timeLoss="8.53" rerouteNo="0" devices="tripinfo_91" vType="DEFAULT_VEHTYPE" speedFactor="0.99" vaporized=""/>
    <tripinfo id="36" depart="77.00" departLane="978867529_0" departPos="5.10" departSpeed="0.00" departDelay="0.76" arrival="264.00" arrivalLane="210831345#1_1" arrivalPos="264.29" arrivalSpeed="12.29" duration="187.00" routeLength="951.92" waitingTime="92.00" waitingCount="2" stopTime="0.00" timeLoss="113.81" rerouteNo="0" devices="tripinfo_36" vType="DEFAULT_VEHTYPE" speedFactor="0.90" vaporized=""/>
    <tripinfo id="62" depart="132.00" departLane="-218680176#1_0" departPos="5.10" departSpeed="0.00" departDelay="0.71" arrival="265.00" arrivalLane="210831345#1_0" arrivalPos="264.29" arrivalSpeed="13.89" duration="133.00" routeLength="699.94" waitingTime="62.00" waitingCount="2" stopTime="0.00" timeLoss="82.57" rerouteNo="0" devices="tripinfo_62" vType="DEFAULT_VEHTYPE" speedFactor="1.03" vaporized=""/>
    <tripinfo id="66" depart="140.00" departLane="978867529_0" departPos="5.10" departSpeed="0.00" departDelay="0.24" arrival="270.00" arrivalLane="450554042#0_0" arrivalPos="622.66" arrivalSpeed="16.00" duration="130.00" routeLength="1868.58" waitingTime="0.00" waitingCount="0" stopTime="0.00" timeLoss="10.67" rerouteNo="0" devices="tripinfo_66" vType="DEFAULT_VEHTYPE" speedFactor="0.98" vaporized=""/>
    <tripinfo id="26" depart="56.00" departLane="-231177697#2_0" departPos="5.10" departSpeed="0.00" departDelay="0.94" arrival="275.00" arrivalLane="450554042#0_0" arrivalPos="622.66" arrivalSpeed="14.81" duration="219.00" routeLength="1613.58" waitingTime="81.00" waitingCount="2" stopTime="0.00" timeLoss="108.60" rerouteNo="0" devices="tripinfo_26" vType="DEFAULT_VEHTYPE" speedFactor="0.93" vaporized=""/>
    <tripinfo id="41" depart="88.00" departLane="65746828#0_0" departPos="5.10" departSpeed="0.00" departDelay="1.18" arrival="277.00" arrivalLane="450554042#0_0" arrivalPos="622.66" arrivalSpeed="13.82" duration="189.00" routeLength="1340.72" waitingTime="75.00" waitingCount="2" stopTime="0.00" timeLoss="92.60" rerouteNo="0" devices="tripinfo_41" vType="DEFAULT_VEHTYPE" speedFactor="0.87" vaporized=""/>
    <tripinfo id="117" depart="248.00" departLane="-231177697#2_0" departPos="5.10" departSpeed="0.00" departDelay="0.24" arrival="281.00" arrivalLane="153964138#0_0" arrivalPos="337.99" arrivalSpeed="17.37" duration="33.00" routeLength="417.38" waitingTime="0.00" waitingCount="0" stopTime="0.00" timeLoss="7.28" rerouteNo="0" devices="tripinfo_117" vType="DEFAULT_VEHTYPE" speedFactor="1.07" vaporized=""/>
    <tripinfo id="57" depart="121.00" departLane="E8_0" departPos="5.10" departSpeed="0.00" departDelay="0.29" arrival="283.00" arrivalLane="39907424_0" arrivalPos="316.44" arrivalSpeed="12.11" duration="162.00" routeLength="1303.68" waitingTime="53.00" waitingCount="1" stopTime="0.00" timeLoss="66.64" rerouteNo="0" devices="tripinfo_57" vType="DEFAULT_VEHTYPE" speedFactor="0.96" vaporized=""/>
    <tripinfo id="90" depart="191.00" departLane="666135205#0_0" departPos="5.10" departSpeed="0.00" departDelay="0.41" arrival="292.00" arrivalLane="231177697#0_0" arrivalPos="74.44" arrivalSpeed="12.75" duration="101.00" routeLength="649.17" waitingTime="37.00" waitingCount="1" stopTime="0.00" timeLoss="52.07" rerouteNo="0" devices="tripinfo_90" vType="DEFAULT_VEHTYPE" speedFactor="0.99" vaporized=""/>
    <tripinfo id="25" depart="53.00" departLane="-661251539_0" departPos="5.10" departSpeed="0.00" departDelay="0.06" arrival="299.00" arrivalLane="153964138#0_0" arrivalPos="337.99" arrivalSpeed="20.45" duration="246.00" routeLength="1239.04" waitingTime="154.00" waitingCount="2" stopTime="0.00" timeLoss="180.15" rerouteNo="0" devices="tripinfo_25" vType="DEFAULT_VEHTYPE" speedFactor="1.30" vaporized=""/>
    <tripinfo id="69" depart="147.00" departLane="666135205#0_0" departPos="5.10" departSpeed="0.00" departDelay="0.88" arrival="303.00" arrivalLane="153964138#0_0" arrivalPos="337.99" arrivalSpeed="16.76" duration="156.00" routeLength="924.87" waitingTime="81.00" waitingCount="1" stopTime="0.00" timeLoss="93.94" rerouteNo="0" devices="tripinfo_69" vType="DEFAULT_VEHTYPE" speedFactor="1.02" vaporized=""/>
    <tripinfo id="42" depart="89.00" departLane="-661251539_0" departPos="5.10" departSpeed="0.00" departDelay="0.06" arrival="308.00" arrivalLane="153964138#0_0" arrivalPos="337.99" arrivalSpeed="14.08" duration="219.00" routeLength="1239.04" waitingTime="96.00" waitingCount="3" stopTime="0.00" timeLoss="121.14" rerouteNo="0" devices="tripinfo_42" vType="DEFAULT_VEHTYPE" speedFactor="0.87" vaporized=""/>
    <tripinfo id="99" depart="210.00" departLane="E8_0" departPos="5.10" departSpeed="0.00" departDelay="0.35" arrival="310.00" arrivalLane="39907424_0" arrivalPos="316.44" arrivalSpeed="12.80" duration="100.00" routeLength="1303.68" waitingTime="0.00" waitingCount="0" stopTime="0.00" timeLoss="10.71" rerouteNo="0" devices="tripinfo_99" vType="DEFAULT_VEHTYPE" speedFactor="1.01" vaporized=""/>
    <tripinfo id="132" depart="280.00" departLane="978867529_0" departPos="5.10" departSpeed="0.00" departDelay="0.47" arrival="312.00" arrivalLane="231177697#0_1" arrivalPos="74.44" arrivalSpeed="14.30" duration="32.00" routeLength="437.06" waitingTime="0.00" waitingCount="0" stopTime="0.00" timeLoss="5.28" rerouteNo="0" devices="tripinfo_132" vType="DEFAULT_VEHTYPE" speedFactor="1.06" vaporized=""/>
    <tripinfo id="104" depart="222.00" departLane="-661251539_0" departPos="5.10" departSpeed="0.00" departDelay="1.76" arrival="313.00" arrivalLane="450554042#0_0" arrivalPos="622.66" arrivalSpeed="15.80" duration="91.00" routeLength="1282.13" waitingTime="0.00" waitingCount="0" stopTime="0.00" timeLoss="9.16" rerouteNo="0" devices="tripinfo_104" vType="DEFAULT_VEHTYPE" speedFactor="1.01" vaporized=""/>
    <tripinfo id="38" depart="81.00" departLane="E8_0" departPos="5.10" departSpeed="0.00" departDelay="0.53" arrival="316.00" arrivalLane="218680176#0_1" arrivalPos="98.94" arrivalSpeed="12.09" duration="235.00" routeLength="1637.20" waitingTime="94.00" waitingCount="1" stopTime="0.00" timeLoss="115.07" rerouteNo="0" devices="tripinfo_38" vType="DEFAULT_VEHTYPE" speedFactor="0.95" vaporized=""/>
    <tripinfo id="17" depart="36.00" departLane="-661251539_0" departPos="5.10" departSpeed="0.00" departDelay="0.00" arrival="318.00" arrivalLane="218680176#0_1" arrivalPos="98.94" arrivalSpeed="12.94" duration="282.00" routeLength="1001.21" waitingTime="185.00" waitingCount="2" stopTime="0.00" timeLoss="206.56" rerouteNo="0" devices="tripinfo_17" vType="DEFAULT_VEHTYPE" speedFactor="0.98" vaporized=""/>
    <tripinfo id="85" depart="180.00" departLane="E8_0" departPos="5.10" departSpeed="0.00" departDelay="0.00" arrival="318.00" arrivalLane="226276377#0_1" arrivalPos="135.52" arrivalSpeed="14.48" duration="138.00" routeLength="784.51" waitingTime="71.00" waitingCount="1" stopTime="0.00" timeLoss="83.54" rerouteNo="0" devices="tripinfo_85" vType="DEFAULT_VEHTYPE" speedFactor="1.06" vaporized=""/>