<?xml version="1.0" encoding="UTF-8"?>

<!-- generated on 2024-09-02 16:05:49 by Eclipse SUMO sumo Version 1.20.0
<configuration xmlns:xsi="http://www.w3.org/2001/XMLSchema-instance" xsi:noNamespaceSchemaLocation="http://sumo.dlr.de/xsd/sumoConfiguration.xsd">

    <input>
        <net-file value="c:\self\School\Master\Disertation\code\RESCO\resco_benchmark\environments/unirii/osm.net.xml.gz"/>
        <route-files value="c:\self\School\Master\Disertation\code\RESCO\resco_benchmark\environments/unirii/osm.passenger.trips.xml"/>
        <additional-files value="c:\self\School\Master\Disertation\code\RESCO\resco_benchmark\environments/unirii/osm.poly.xml.gz"/>
    </input>

    <output>
        <tripinfo-output value="C:\self\School\Master\Disertation\code\RESCO\results\IDQN-tr0-unirii-0-drq-wait\tripinfo_63.xml"/>
        <tripinfo-output.write-unfinished value="true"/>
    </output>

    <processing>
        <ignore-route-errors value="true"/>
        <time-to-teleport value="-1"/>
    </processing>

    <routing>
        <device.rerouting.adaptation-steps value="18"/>
        <device.rerouting.adaptation-interval value="10"/>
    </routing>

    <report>
        <verbose value="true"/>
        <no-warnings value="True"/>
        <duration-log.statistics value="true"/>
        <no-step-log value="True"/>
    </report>

    <traci_server>
        <remote-port value="63539"/>
    </traci_server>

    <random_number>
        <random value="true"/>
    </random_number>

    <gui_only>
        <gui-settings-file value="c:\self\School\Master\Disertation\code\RESCO\resco_benchmark\environments/unirii/osm.view.xml"/>
    </gui_only>

</configuration>
-->

<tripinfos xmlns:xsi="http://www.w3.org/2001/XMLSchema-instance" xsi:noNamespaceSchemaLocation="http://sumo.dlr.de/xsd/tripinfo_file.xsd">
    <tripinfo id="6" depart="13.00" departLane="-218680176#1_0" departPos="5.10" departSpeed="0.00" departDelay="0.29" arrival="57.00" arrivalLane="153964138#0_1" arrivalPos="337.99" arrivalSpeed="13.91" duration="44.00" routeLength="462.27" waitingTime="0.00" waitingCount="0" stopTime="0.00" timeLoss="10.96" rerouteNo="0" devices="tripinfo_6" vType="DEFAULT_VEHTYPE" speedFactor="0.91" vaporized=""/>
    <tripinfo id="16" depart="34.00" departLane="256961141#0_0" departPos="5.10" departSpeed="0.00" departDelay="0.12" arrival="99.00" arrivalLane="450554042#0_0" arrivalPos="622.66" arrivalSpeed="14.72" duration="65.00" routeLength="853.74" waitingTime="0.00" waitingCount="0" stopTime="0.00" timeLoss="7.21" rerouteNo="0" devices="tripinfo_16" vType="DEFAULT_VEHTYPE" speedFactor="0.95" vaporized=""/>
    <tripinfo id="1" depart="3.00" departLane="-231177697#2_0" departPos="5.10" departSpeed="0.00" departDelay="0.88" arrival="102.00" arrivalLane="210831345#1_1" arrivalPos="264.29" arrivalSpeed="14.34" duration="99.00" routeLength="696.92" waitingTime="32.00" waitingCount="2" stopTime="0.00" timeLoss="50.01" rerouteNo="0" devices="tripinfo_1" vType="DEFAULT_VEHTYPE" speedFactor="1.05" vaporized=""/>
    <tripinfo id="22" depart="47.00" departLane="-218680176#1_0" departPos="5.10" departSpeed="0.00" departDelay="0.41" arrival="109.00" arrivalLane="210831345#1_1" arrivalPos="264.29" arrivalSpeed="12.97" duration="62.00" routeLength="699.94" waitingTime="0.00" waitingCount="0" stopTime="0.00" timeLoss="8.20" rerouteNo="0" devices="tripinfo_22" vType="DEFAULT_VEHTYPE" speedFactor="0.96" vaporized=""/>
    <tripinfo id="10" depart="23.00" departLane="978867529_0" departPos="5.10" departSpeed="0.00" departDelay="1.82" arrival="113.00" arrivalLane="231177697#0_1" arrivalPos="74.44" arrivalSpeed="14.50" duration="90.00" routeLength="437.06" waitingTime="51.00" waitingCount="1" stopTime="0.00" timeLoss="63.20" rerouteNo="0" devices="tripinfo_10" vType="DEFAULT_VEHTYPE" speedFactor="1.07" vaporized=""/>
    <tripinfo id="15" depart="33.00" departLane="978867529_0" departPos="5.10" departSpeed="0.00" departDelay="1.24" arrival="115.00" arrivalLane="231177697#0_1" arrivalPos="74.44" arrivalSpeed="13.44" duration="82.00" routeLength="437.06" waitingTime="44.00" waitingCount="1" stopTime="0.00" timeLoss="54.57" rerouteNo="0" devices="tripinfo_15" vType="DEFAULT_VEHTYPE" speedFactor="1.04" vaporized=""/>
    <tripinfo id="7" depart="15.00" departLane="65746828#0_0" departPos="5.10" departSpeed="0.00" departDelay="0.18" arrival="116.00" arrivalLane="218680176#0_1" arrivalPos="98.94" arrivalSpeed="13.02" duration="101.00" routeLength="602.71" waitingTime="46.00" waitingCount="1" stopTime="0.00" timeLoss="56.41" rerouteNo="0" devices="tripinfo_7" vType="DEFAULT_VEHTYPE" speedFactor="1.01" vaporized=""/>
    <tripinfo id="5" depart="11.00" departLane="-226276377#1_0" departPos="5.10" departSpeed="0.00" departDelay="0.41" arrival="117.00" arrivalLane="218680176#0_1" arrivalPos="98.94" arrivalSpeed="13.48" duration="106.00" routeLength="1158.55" waitingTime="8.00" waitingCount="1" stopTime="0.00" timeLoss="29.31" rerouteNo="0" devices="tripinfo_5" vType="DEFAULT_VEHTYPE" speedFactor="1.05" vaporized=""/>
    <tripinfo id="23" depart="50.00" departLane="-218680176#1_0" departPos="5.10" departSpeed="0.00" departDelay="1.29" arrival="117.00" arrivalLane="210831345#1_0" arrivalPos="264.29" arrivalSpeed="11.70" duration="67.00" routeLength="699.94" waitingTime="0.00" waitingCount="0" stopTime="0.00" timeLoss="8.04" rerouteNo="0" devices="tripinfo_23" vType="DEFAULT_VEHTYPE" speedFactor="0.87" vaporized=""/>
    <tripinfo id="32" depart="68.00" departLane="978867529_0" departPos="5.10" departSpeed="0.00" departDelay="0.24" arrival="117.00" arrivalLane="231177697#0_1" arrivalPos="74.44" arrivalSpeed="14.51" duration="49.00" routeLength="437.06" waitingTime="10.00" waitingCount="1" stopTime="0.00" timeLoss="23.19" rerouteNo="0" devices="tripinfo_32" vType="DEFAULT_VEHTYPE" speedFactor="1.12" vaporized=""/>
    <tripinfo id="0" depart="0.00" departLane="65746828#0_0" departPos="5.10" departSpeed="0.00" departDelay="0.00" arrival="123.00" arrivalLane="-256961141#1_1" arrivalPos="204.72" arrivalSpeed="14.33" duration="123.00" routeLength="931.50" waitingTime="44.00" waitingCount="2" stopTime="0.00" timeLoss="63.75" rerouteNo="0" devices="tripinfo_0" vType="DEFAULT_VEHTYPE" speedFactor="1.04" vaporized=""/>
    <tripinfo id="4" depart="9.00" departLane="-661251539_0" departPos="5.10" departSpeed="0.00" departDelay="0.53" arrival="127.00" arrivalLane="-256961141#1_1" arrivalPos="204.72" arrivalSpeed="11.93" duration="118.00" routeLength="872.91" waitingTime="35.00" waitingCount="1" stopTime="0.00" timeLoss="51.31" rerouteNo="0" devices="tripinfo_4" vType="DEFAULT_VEHTYPE" speedFactor="0.90" vaporized=""/>
    <tripinfo id="30" depart="64.00" departLane="E8_0" departPos="5.10" departSpeed="0.00" departDelay="0.47" arrival="135.00" arrivalLane="226276377#0_1" arrivalPos="135.52" arrivalSpeed="12.16" duration="71.00" routeLength="784.51" waitingTime="0.00" waitingCount="0" stopTime="0.00" timeLoss="7.06" rerouteNo="0" devices="tripinfo_30" vType="DEFAULT_VEHTYPE" speedFactor="0.90" vaporized=""/>
    <tripinfo id="3" depart="7.00" departLane="E8_0" departPos="5.10" departSpeed="0.00" departDelay="0.65" arrival="148.00" arrivalLane="-256961141#1_0" arrivalPos="204.72" arrivalSpeed="11.62" duration="141.00" routeLength="832.89" waitingTime="63.00" waitingCount="1" stopTime="0.00" timeLoss="74.50" rerouteNo="0" devices="tripinfo_3" vType="DEFAULT_VEHTYPE" speedFactor="0.92" vaporized=""/>
    <tripinfo id="14" depart="30.00" departLane="978867529_0" departPos="5.10" departSpeed="0.00" departDelay="0.35" arrival="150.00" arrivalLane="226276377#0_0" arrivalPos="135.52" arrivalSpeed="15.50" duration="120.00" routeLength="1369.55" waitingTime="21.00" waitingCount="1" stopTime="0.00" timeLoss="41.91" rerouteNo="0" devices="tripinfo_14" vType="DEFAULT_VEHTYPE" speedFactor="1.15" vaporized=""/>
    <tripinfo id="27" depart="58.00" departLane="65746828#0_0" departPos="5.10" departSpeed="0.00" departDelay="0.82" arrival="157.00" arrivalLane="226276377#0_0" arrivalPos="135.52" arrivalSpeed="10.83" duration="99.00" routeLength="841.69" waitingTime="22.00" waitingCount="1" stopTime="0.00" timeLoss="34.03" rerouteNo="0" devices="tripinfo_27" vType="DEFAULT_VEHTYPE" speedFactor="0.86" vaporized=""/>
    <tripinfo id="19" depart="42.00" departLane="978867529_0" departPos="5.10" departSpeed="0.00" departDelay="1.76" arrival="159.00" arrivalLane="226276377#0_0" arrivalPos="135.52" arrivalSpeed="14.03" duration="117.00" routeLength="1369.55" waitingTime="8.00" waitingCount="1" stopTime="0.00" timeLoss="33.93" rerouteNo="0" devices="tripinfo_19" vType="DEFAULT_VEHTYPE" speedFactor="1.08" vaporized=""/>
    <tripinfo id="18" depart="39.00" departLane="978867529_0" departPos="5.10" departSpeed="0.00" departDelay="0.88" arrival="161.00" arrivalLane="226276377#0_0" arrivalPos="135.52" arrivalSpeed="13.74" duration="122.00" routeLength="1369.55" waitingTime="13.00" waitingCount="1" stopTime="0.00" timeLoss="34.11" rerouteNo="0" devices="tripinfo_18" vType="DEFAULT_VEHTYPE" speedFactor="1.03" vaporized=""/>
    <tripinfo id="2" depart="5.00" departLane="666135205#0_0" departPos="5.10" departSpeed="0.00" departDelay="0.76" arrival="162.00" arrivalLane="231177697#0_0" arrivalPos="74.44" arrivalSpeed="13.89" duration="157.00" routeLength="649.17" waitingTime="94.00" waitingCount="2" stopTime="0.00" timeLoss="109.92" rerouteNo="0" devices="tripinfo_2" vType="DEFAULT_VEHTYPE" speedFactor="1.03" vaporized=""/>
    <tripinfo id="35" depart="75.00" departLane="-226276377#1_0" departPos="5.10" departSpeed="0.00" departDelay="0.88" arrival="165.00" arrivalLane="450554042#0_0" arrivalPos="622.66" arrivalSpeed="16.13" duration="90.00" routeLength="763.53" waitingTime="31.00" waitingCount="1" stopTime="0.00" timeLoss="42.60" rerouteNo="0" devices="tripinfo_35" vType="DEFAULT_VEHTYPE" speedFactor="1.03" vaporized=""/>
    <tripinfo id="28" depart="60.00" departLane="-226276377#1_0" departPos="5.10" departSpeed="0.00" departDelay="0.71" arrival="166.00" arrivalLane="231177697#0_0" arrivalPos="74.44" arrivalSpeed="14.31" duration="106.00" routeLength="1114.63" waitingTime="17.00" waitingCount="2" stopTime="0.00" timeLoss="35.20" rerouteNo="0" devices="tripinfo_28" vType="DEFAULT_VEHTYPE" speedFactor="1.11" vaporized=""/>
    <tripinfo id="61" depart="130.00" departLane="978867529_0" departPos="5.10" departSpeed="0.00" departDelay="0.82" arrival="167.00" arrivalLane="218680176#0_0" arrivalPos="98.94" arrivalSpeed="14.13" duration="37.00" routeLength="442.15" waitingTime="0.00" waitingCount="0" stopTime="0.00" timeLoss="9.40" rerouteNo="0" devices="tripinfo_61" vType="DEFAULT_VEHTYPE" speedFactor="1.07" vaporized=""/>
    <tripinfo id="31" depart="66.00" departLane="65746828#0_0" departPos="5.10" departSpeed="0.00" departDelay="0.35" arrival="169.00" arrivalLane="231177697#0_0" arrivalPos="74.44" arrivalSpeed="12.15" duration="103.00" routeLength="558.79" waitingTime="44.00" waitingCount="1" stopTime="0.00" timeLoss="59.84" rerouteNo="0" devices="tripinfo_31" vType="DEFAULT_VEHTYPE" speedFactor="0.97" vaporized=""/>
    <tripinfo id="25" depart="53.00" departLane="-661251539_0" departPos="5.10" departSpeed="0.00" departDelay="0.06" arrival="178.00" arrivalLane="153964138#0_0" arrivalPos="337.99" arrivalSpeed="17.10" duration="125.00" routeLength="1239.04" waitingTime="22.00" waitingCount="2" stopTime="0.00" timeLoss="44.31" rerouteNo="0" devices="tripinfo_25" vType="DEFAULT_VEHTYPE" speedFactor="1.06" vaporized=""/>
    <tripinfo id="11" depart="24.00" departLane="-661251539_0" departPos="5.10" departSpeed="0.00" departDelay="0.71" arrival="183.00" arrivalLane="153964138#0_0" arrivalPos="337.99" arrivalSpeed="13.00" duration="159.00" routeLength="1239.04" waitingTime="41.00" waitingCount="2" stopTime="0.00" timeLoss="59.09" rerouteNo="0" devices="tripinfo_11" vType="DEFAULT_VEHTYPE" speedFactor="0.86" vaporized=""/>
    <tripinfo id="59" depart="125.00" departLane="65746828#0_0" departPos="5.10" departSpeed="0.00" departDelay="0.06" arrival="190.00" arrivalLane="153964138#0_0" arrivalPos="337.99" arrivalSpeed="15.44" duration="65.00" routeLength="834.49" waitingTime="0.00" waitingCount="0" stopTime="0.00" timeLoss="6.28" rerouteNo="0" devices="tripinfo_59" vType="DEFAULT_VEHTYPE" speedFactor="0.97" vaporized=""/>
    <tripinfo id="29" depart="63.00" departLane="-226276377#1_0" departPos="5.10" departSpeed="0.00" departDelay="1.59" arrival="195.00" arrivalLane="210831347#0_1" arrivalPos="149.88" arrivalSpeed="12.68" duration="132.00" routeLength="888.52" waitingTime="52.00" waitingCount="2" stopTime="0.00" timeLoss="68.03" rerouteNo="0" devices="tripinfo_29" vType="DEFAULT_VEHTYPE" speedFactor="0.96" vaporized=""/>
    <tripinfo id="12" depart="26.00" departLane="E8_0" departPos="5.10" departSpeed="0.00" departDelay="0.59" arrival="196.00" arrivalLane="210831347#0_1" arrivalPos="149.88" arrivalSpeed="13.81" duration="170.00" routeLength="1367.17" waitingTime="58.00" waitingCount="2" stopTime="0.00" timeLoss="80.71" rerouteNo="0" devices="tripinfo_12" vType="DEFAULT_VEHTYPE" speedFactor="1.06" vaporized=""/>
    <tripinfo id="42" depart="89.00" departLane="-661251539_0" departPos="5.10" departSpeed="0.00" departDelay="0.06" arrival="197.00" arrivalLane="153964138#0_0" arrivalPos="337.99" arrivalSpeed="18.41" duration="108.00" routeLength="1239.04" waitingTime="16.00" waitingCount="2" stopTime="0.00" timeLoss="33.28" rerouteNo="0" devices="tripinfo_42" vType="DEFAULT_VEHTYPE" speedFactor="1.15" vaporized=""/>
    <tripinfo id="21" depart="45.00" departLane="-231177697#2_0" departPos="5.10" departSpeed="0.00" departDelay="0.53" arrival="202.00" arrivalLane="210831345#1_1" arrivalPos="264.29" arrivalSpeed="14.35" duration="157.00" routeLength="696.92" waitingTime="95.00" waitingCount="2" stopTime="0.00" timeLoss="109.37" rerouteNo="0" devices="tripinfo_21" vType="DEFAULT_VEHTYPE" speedFactor="1.09" vaporized=""/>
    <tripinfo id="34" depart="72.00" departLane="-231177697#2_0" departPos="5.10" departSpeed="0.00" departDelay="0.00" arrival="205.00" arrivalLane="210831345#1_1" arrivalPos="264.29" arrivalSpeed="13.46" duration="133.00" routeLength="696.92" waitingTime="65.00" waitingCount="2" stopTime="0.00" timeLoss="81.12" rerouteNo="0" devices="tripinfo_34" vType="DEFAULT_VEHTYPE" speedFactor="0.98" vaporized=""/>
    <tripinfo id="39" depart="83.00" departLane="-231177697#2_0" departPos="5.10" departSpeed="0.00" departDelay="0.41" arrival="206.00" arrivalLane="210831345#1_0" arrivalPos="264.29" arrivalSpeed="15.39" duration="123.00" routeLength="696.92" waitingTime="55.00" waitingCount="2" stopTime="0.00" timeLoss="79.89" rerouteNo="0" devices="tripinfo_39" vType="DEFAULT_VEHTYPE" speedFactor="1.20" vaporized=""/>
    <tripinfo id="55" depart="117.00" departLane="978867529_0" departPos="5.10" departSpeed="0.00" departDelay="0.53" arrival="210.00" arrivalLane="210831345#1_1" arrivalPos="264.29" arrivalSpeed="12.48" duration="93.00" routeLength="951.92" waitingTime="7.00" waitingCount="1" stopTime="0.00" timeLoss="23.24" rerouteNo="0" devices="tripinfo_55" vType="DEFAULT_VEHTYPE" speedFactor="0.95" vaporized=""/>
    <tripinfo id="36" depart="77.00" departLane="978867529_0" departPos="5.10" departSpeed="0.00" departDelay="0.76" arrival="211.00" arrivalLane="210831345#1_1" arrivalPos="264.29" arrivalSpeed="13.56" duration="134.00" routeLength="951.92" waitingTime="48.00" waitingCount="1" stopTime="0.00" timeLoss="68.36" rerouteNo="0" devices="tripinfo_36" vType="DEFAULT_VEHTYPE" speedFactor="1.00" vaporized=""/>
    <tripinfo id="54" depart="115.00" departLane="256961141#0_0" departPos="5.10" departSpeed="0.00" departDelay="0.65" arrival="222.00" arrivalLane="450554042#0_0" arrivalPos="622.66" arrivalSpeed="15.52" duration="107.00" routeLength="853.74" waitingTime="42.00" waitingCount="1" stopTime="0.00" timeLoss="51.79" rerouteNo="0" devices="tripinfo_54" vType="DEFAULT_VEHTYPE" speedFactor="0.99" vaporized=""/>
    <tripinfo id="13" depart="28.00" departLane="-218680176#1_0" departPos="5.10" departSpeed="0.00" departDelay="0.47" arrival="223.00" arrivalLane="-256961141#1_1" arrivalPos="204.72" arrivalSpeed="13.36" duration="195.00" routeLength="1207.38" waitingTime="90.00" waitingCount="3" stopTime="0.00" timeLoss="114.91" rerouteNo="0" devices="tripinfo_13" vType="DEFAULT_VEHTYPE" speedFactor="1.03" vaporized=""/>
    <tripinfo id="40" depart="85.00" departLane="65746828#0_0" departPos="5.10" departSpeed="0.00" departDelay="0.29" arrival="225.00" arrivalLane="210831345#1_0" arrivalPos="264.29" arrivalSpeed="12.52" duration="140.00" routeLength="446.75" waitingTime="95.00" waitingCount="1" stopTime="0.00" timeLoss="104.18" rerouteNo="0" devices="tripinfo_40" vType="DEFAULT_VEHTYPE" speedFactor="0.90" vaporized=""/>
    <tripinfo id="75" depart="159.00" departLane="E8_0" departPos="5.10" departSpeed="0.00" departDelay="0.18" arrival="229.00" arrivalLane="226276377#0_1" arrivalPos="135.52" arrivalSpeed="11.80" duration="70.00" routeLength="784.51" waitingTime="0.00" waitingCount="0" stopTime="0.00" timeLoss="5.71" rerouteNo="0" devices="tripinfo_75" vType="DEFAULT_VEHTYPE" speedFactor="0.90" vaporized=""/>
    <tripinfo id="9" depart="20.00" departLane="978867529_0" departPos="5.10" departSpeed="0.00" departDelay="0.94" arrival="230.00" arrivalLane="-256961141#1_1" arrivalPos="204.72" arrivalSpeed="10.14" duration="210.00" routeLength="1459.36" waitingTime="67.00" waitingCount="2" stopTime="0.00" timeLoss="87.31" rerouteNo="0" devices="tripinfo_9" vType="DEFAULT_VEHTYPE" speedFactor="0.78" vaporized=""/>
    <tripinfo id="20" depart="43.00" departLane="666135205#0_0" departPos="5.10" departSpeed="0.00" departDelay="0.65" arrival="231.00" arrivalLane="-256961141#1_0" arrivalPos="204.72" arrivalSpeed="13.10" duration="188.00" routeLength="1068.72" waitingTime="92.00" waitingCount="2" stopTime="0.00" timeLoss="112.46" rerouteNo="0" devices="tripinfo_20" vType="DEFAULT_VEHTYPE" speedFactor="0.96" vaporized=""/>
    <tripinfo id="44" depart="94.00" departLane="-218680176#1_0" departPos="5.10" departSpeed="0.00" departDelay="0.82" arrival="232.00" arrivalLane="-256961141#1_1" arrivalPos="204.72" arrivalSpeed="14.02" duration="138.00" routeLength="1207.38" waitingTime="30.00" waitingCount="3" stopTime="0.00" timeLoss="58.48" rerouteNo="0" devices="tripinfo_44" vType="DEFAULT_VEHTYPE" speedFactor="1.03" vaporized=""/>
    <tripinfo id="33" depart="70.00" departLane="-231177697#2_0" departPos="5.10" departSpeed="0.00" departDelay="0.12" arrival="234.00" arrivalLane="-256961141#1_1" arrivalPos="204.72" arrivalSpeed="11.93" duration="164.00" routeLength="1204.36" waitingTime="56.00" waitingCount="2" stopTime="0.00" timeLoss="78.12" rerouteNo="0" devices="tripinfo_33" vType="DEFAULT_VEHTYPE" speedFactor="0.95" vaporized=""/>
    <tripinfo id="65" depart="138.00" departLane="-231177697#2_0" departPos="5.10" departSpeed="0.00" departDelay="0.35" arrival="236.00" arrivalLane="-256961141#1_1" arrivalPos="204.72" arrivalSpeed="14.19" duration="98.00" routeLength="1204.36" waitingTime="1.00" waitingCount="1" stopTime="0.00" timeLoss="20.15" rerouteNo="0" devices="tripinfo_65" vType="DEFAULT_VEHTYPE" speedFactor="1.05" vaporized=""/>
    <tripinfo id="50" depart="106.00" departLane="-218680176#1_0" departPos="5.10" departSpeed="0.00" departDelay="0.12" arrival="242.00" arrivalLane="231177697#0_0" arrivalPos="74.44" arrivalSpeed="14.10" duration="136.00" routeLength="205.97" waitingTime="107.00" waitingCount="2" stopTime="0.00" timeLoss="121.43" rerouteNo="0" devices="tripinfo_50" vType="DEFAULT_VEHTYPE" speedFactor="1.02" vaporized=""/>
    <tripinfo id="46" depart="98.00" departLane="978867529_0" departPos="5.10" departSpeed="0.00" departDelay="0.59" arrival="244.00" arrivalLane="210831347#0_0" arrivalPos="149.88" arrivalSpeed="12.31" duration="146.00" routeLength="812.56" waitingTime="65.00" waitingCount="3" stopTime="0.00" timeLoss="84.76" rerouteNo="0" devices="tripinfo_46" vType="DEFAULT_VEHTYPE" speedFactor="0.91" vaporized=""/>
    <tripinfo id="52" depart="111.00" departLane="-231177697#2_0" departPos="5.10" departSpeed="0.00" departDelay="0.88" arrival="245.00" arrivalLane="226276377#0_0" arrivalPos="135.52" arrivalSpeed="11.92" duration="134.00" routeLength="1114.55" waitingTime="36.00" waitingCount="2" stopTime="0.00" timeLoss="54.44" rerouteNo="0" devices="tripinfo_52" vType="DEFAULT_VEHTYPE" speedFactor="0.95" vaporized=""/>
    <tripinfo id="58" depart="123.00" departLane="-231177697#2_0" departPos="5.10" departSpeed="0.00" departDelay="0.18" arrival="248.00" arrivalLane="226276377#0_0" arrivalPos="135.52" arrivalSpeed="12.77" duration="125.00" routeLength="1114.55" waitingTime="25.00" waitingCount="2" stopTime="0.00" timeLoss="46.87" rerouteNo="0" devices="tripinfo_58" vType="DEFAULT_VEHTYPE" speedFactor="0.97" vaporized=""/>
    <tripinfo id="68" depart="144.00" departLane="-218680176#1_0" departPos="5.10" departSpeed="0.00" departDelay="0.00" arrival="249.00" arrivalLane="231177697#0_0" arrivalPos="74.44" arrivalSpeed="13.49" duration="105.00" routeLength="205.97" waitingTime="77.00" waitingCount="1" stopTime="0.00" timeLoss="90.51" rerouteNo="0" devices="tripinfo_68" vType="DEFAULT_VEHTYPE" speedFactor="1.02" vaporized=""/>
    <tripinfo id="77" depart="164.00" departLane="-226276377#1_0" departPos="5.10" departSpeed="0.00" departDelay="0.94" arrival="256.00" arrivalLane="210831345#1_0" arrivalPos="264.29" arrivalSpeed="14.43" duration="92.00" routeLength="977.93" waitingTime="8.00" waitingCount="2" stopTime="0.00" timeLoss="27.56" rerouteNo="0" devices="tripinfo_77" vType="DEFAULT_VEHTYPE" speedFactor="1.07" vaporized=""/>
    <tripinfo id="79" depart="168.00" departLane="-231177697#2_0" departPos="5.10" departSpeed="0.00" departDelay="0.71" arrival="257.00" arrivalLane="153964138#0_0" arrivalPos="337.99" arrivalSpeed="13.48" duration="89.00" routeLength="417.38" waitingTime="48.00" waitingCount="1" stopTime="0.00" timeLoss="56.88" rerouteNo="0" devices="tripinfo_79" vType="DEFAULT_VEHTYPE" speedFactor="0.84" vaporized=""/>
    <tripinfo id="91" depart="193.00" departLane="E8_0" departPos="5.10" departSpeed="0.00" departDelay="0.29" arrival="258.00" arrivalLane="-256961141#1_0" arrivalPos="204.72" arrivalSpeed="14.61" duration="65.00" routeLength="832.89" waitingTime="0.00" waitingCount="0" stopTime="0.00" timeLoss="8.42" rerouteNo="0" devices="tripinfo_91" vType="DEFAULT_VEHTYPE" speedFactor="1.08" vaporized=""/>
    <tripinfo id="74" depart="157.00" departLane="-226276377#1_0" departPos="5.10" departSpeed="0.00" departDelay="0.29" arrival="260.00" arrivalLane="210831345#1_0" arrivalPos="264.29" arrivalSpeed="12.32" duration="103.00" routeLength="977.93" waitingTime="14.00" waitingCount="2" stopTime="0.00" timeLoss="32.52" rerouteNo="0" devices="tripinfo_74" vType="DEFAULT_VEHTYPE" speedFactor="0.97" vaporized=""/>
    <tripinfo id="78" depart="166.00" departLane="-661251539_0" departPos="5.10" departSpeed="0.00" departDelay="0.82" arrival="262.00" arrivalLane="226276377#0_0" arrivalPos="135.52" arrivalSpeed="13.04" duration="96.00" routeLength="783.10" waitingTime="21.00" waitingCount="2" stopTime="0.00" timeLoss="37.70" rerouteNo="0" devices="tripinfo_78" vType="DEFAULT_VEHTYPE" speedFactor="0.95" vaporized=""/>
    <tripinfo id="17" depart="36.00" departLane="-661251539_0" departPos="5.10" departSpeed="0.00" departDelay="0.00" arrival="264.00" arrivalLane="218680176#0_1" arrivalPos="98.94" arrivalSpeed="14.34" duration="228.00" routeLength="1001.21" waitingTime="139.00" waitingCount="2" stopTime="0.00" timeLoss="157.95" rerouteNo="0" devices="tripinfo_17" vType="DEFAULT_VEHTYPE" speedFactor="1.04" vaporized=""/>
    <tripinfo id="38" depart="81.00" departLane="E8_0" departPos="5.10" departSpeed="0.00" departDelay="0.53" arrival="266.00" arrivalLane="218680176#0_1" arrivalPos="98.94" arrivalSpeed="14.10" duration="185.00" routeLength="1637.20" waitingTime="61.00" waitingCount="1" stopTime="0.00" timeLoss="76.20" rerouteNo="0" devices="tripinfo_38" vType="DEFAULT_VEHTYPE" speedFactor="1.05" vaporized=""/>
    <tripinfo id="51" depart="108.00" departLane="666135205#0_0" departPos="5.10" departSpeed="0.00" departDelay="0.00" arrival="268.00" arrivalLane="218680176#0_1" arrivalPos="98.94" arrivalSpeed="15.02" duration="160.00" routeLength="693.09" waitingTime="97.00" waitingCount="2" stopTime="0.00" timeLoss="113.68" rerouteNo="0" devices="tripinfo_51" vType="DEFAULT_VEHTYPE" speedFactor="1.11" vaporized=""/>
    <tripinfo id="26" depart="56.00" departLane="-231177697#2_0" departPos="5.10" departSpeed="0.00" departDelay="0.94" arrival="269.00" arrivalLane="450554042#0_0" arrivalPos="622.66" arrivalSpeed="17.87" duration="213.00" routeLength="1613.58" waitingTime="96.00" waitingCount="2" stopTime="0.00" timeLoss="117.42" rerouteNo="0" devices="tripinfo_26" vType="DEFAULT_VEHTYPE" speedFactor="1.07" vaporized=""/>
    <tripinfo id="53" depart="113.00" departLane="-226276377#1_0" departPos="5.10" departSpeed="0.00" departDelay="0.76" arrival="270.00" arrivalLane="210831347#0_1" arrivalPos="149.88" arrivalSpeed="11.86" duration="157.00" routeLength="888.52" waitingTime="77.00" waitingCount="2" stopTime="0.00" timeLoss="91.01" rerouteNo="0" devices="tripinfo_53" vType="DEFAULT_VEHTYPE" speedFactor="0.93" vaporized=""/>
    <tripinfo id="60" depart="128.00" departLane="666135205#0_0" departPos="5.10" departSpeed="0.00" departDelay="0.94" arrival="272.00" arrivalLane="218680176#0_1" arrivalPos="98.94" arrivalSpeed="11.56" duration="144.00" routeLength="693.09" waitingTime="68.00" waitingCount="2" stopTime="0.00" timeLoss="83.47" rerouteNo="0" devices="tripinfo_60" vType="DEFAULT_VEHTYPE" speedFactor="0.85" vaporized=""/>
    <tripinfo id="92" depart="195.00" departLane="-661251539_0" departPos="5.10" departSpeed="0.00" departDelay="0.18" arrival="272.00" arrivalLane="210831347#0_1" arrivalPos="149.88" arrivalSpeed="12.97" duration="77.00" routeLength="731.18" waitingTime="4.00" waitingCount="1" stopTime="0.00" timeLoss="22.84" rerouteNo="0" devices="tripinfo_92" vType="DEFAULT_VEHTYPE" speedFactor="1.00" vaporized=""/>
    <tripinfo id="41" depart="88.00" departLane="65746828#0_0" departPos="5.10" departSpeed="0.00" departDelay="1.18" arrival="273.00" arrivalLane="450554042#0_0" arrivalPos="622.66" arrivalSpeed="17.75" duration="185.00" routeLength="1340.72" waitingTime="94.00" waitingCount="1" stopTime="0.00" timeLoss="107.66" rerouteNo="0" devices="tripinfo_41" vType="DEFAULT_VEHTYPE" speedFactor="1.08" vaporized=""/>
    <tripinfo id="43" depart="92.00" departLane="E8_0" departPos="5.10" departSpeed="0.00" departDelay="0.94" arrival="274.00" arrivalLane="218680176#0_1" arrivalPos="98.94" arrivalSpeed="11.07" duration="182.00" routeLength="1637.20" waitingTime="32.00" waitingCount="1" stopTime="0.00" timeLoss="52.58" rerouteNo="0" devices="tripinfo_43" vType="DEFAULT_VEHTYPE" speedFactor="0.89" vaporized=""/>
    <tripinfo id="64" depart="136.00" departLane="978867529_0" departPos="5.10" departSpeed="0.00" departDelay="0.47" arrival="276.00" arrivalLane="39907424_0" arrivalPos="316.44" arrivalSpeed="13.24" duration="140.00" routeLength="1216.15" waitingTime="40.00" waitingCount="1" stopTime="0.00" timeLoss="56.47" rerouteNo="0" devices="tripinfo_64" vType="DEFAULT_VEHTYPE" speedFactor="0.99" vaporized=""/>
    <tripinfo id="70" depart="149.00" departLane="256961141#0_0" departPos="5.10" departSpeed="0.00" departDelay="0.76" arrival="276.00" arrivalLane="218680176#0_1" arrivalPos="98.94" arrivalSpeed="13.35" duration="127.00" routeLength="1207.47" waitingTime="19.00" waitingCount="1" stopTime="0.00" timeLoss="44.38" rerouteNo="0" devices="tripinfo_70" vType="DEFAULT_VEHTYPE" speedFactor="1.03" vaporized=""/>
    <tripinfo id="76" depart="161.00" departLane="-661251539_0" departPos="5.10" departSpeed="0.00" departDelay="0.06" arrival="277.00" arrivalLane="218680176#0_1" arrivalPos="98.94" arrivalSpeed="15.40" duration="116.00" routeLength="1001.21" waitingTime="27.00" waitingCount="2" stopTime="0.00" timeLoss="50.81" rerouteNo="0" devices="tripinfo_76" vType="DEFAULT_VEHTYPE" speedFactor="1.12" vaporized=""/>
    <tripinfo id="89" depart="189.00" departLane="-661251539_0" departPos="5.10" departSpeed="0.00" departDelay="0.53" arrival="279.00" arrivalLane="218680176#0_1" arrivalPos="98.94" arrivalSpeed="14.77" duration="90.00" routeLength="1001.21" waitingTime="4.00" waitingCount="1" stopTime="0.00" timeLoss="20.89" rerouteNo="0" devices="tripinfo_89" vType="DEFAULT_VEHTYPE" speedFactor="1.07" vaporized=""/>
    <tripinfo id="62" depart="132.00" departLane="-218680176#1_0" departPos="5.10" departSpeed="0.00" departDelay="0.71" arrival="283.00" arrivalLane="210831345#1_1" arrivalPos="264.29" arrivalSpeed="13.98" duration="151.00" routeLength="699.94" waitingTime="86.00" waitingCount="1" stopTime="0.00" timeLoss="99.67" rerouteNo="0" devices="tripinfo_62" vType="DEFAULT_VEHTYPE" speedFactor="1.01" vaporized=""/>
    <tripinfo id="71" depart="151.00" departLane="-231177697#2_0" departPos="5.10" departSpeed="0.00" departDelay="0.65" arrival="286.00" arrivalLane="39907424_0" arrivalPos="316.44" arrivalSpeed="11.45" duration="135.00" routeLength="961.15" waitingTime="41.00" waitingCount="1" stopTime="0.00" timeLoss="52.83" rerouteNo="0" devices="tripinfo_71" vType="DEFAULT_VEHTYPE" speedFactor="0.83" vaporized=""/>
    <tripinfo id="86" depart="183.00" departLane="256961141#0_0" departPos="5.10" departSpeed="0.00" departDelay="0.88" arrival="288.00" arrivalLane="39907424_0" arrivalPos="316.44" arrivalSpeed="13.02" duration="105.00" routeLength="873.95" waitingTime="22.00" waitingCount="2" stopTime="0.00" timeLoss="40.37" rerouteNo="0" devices="tripinfo_86" vType="DEFAULT_VEHTYPE" speedFactor="0.94" vaporized=""/>