<?xml version="1.0" encoding="UTF-8"?>

<!-- generated on 2024-09-02 15:58:20 by Eclipse SUMO sumo Version 1.20.0
<configuration xmlns:xsi="http://www.w3.org/2001/XMLSchema-instance" xsi:noNamespaceSchemaLocation="http://sumo.dlr.de/xsd/sumoConfiguration.xsd">

    <input>
        <net-file value="c:\self\School\Master\Disertation\code\RESCO\resco_benchmark\environments/unirii/osm.net.xml.gz"/>
        <route-files value="c:\self\School\Master\Disertation\code\RESCO\resco_benchmark\environments/unirii/osm.passenger.trips.xml"/>
        <additional-files value="c:\self\School\Master\Disertation\code\RESCO\resco_benchmark\environments/unirii/osm.poly.xml.gz"/>
    </input>

    <output>
        <tripinfo-output value="C:\self\School\Master\Disertation\code\RESCO\results\IDQN-tr0-unirii-0-drq-wait\tripinfo_10.xml"/>
        <tripinfo-output.write-unfinished value="true"/>
    </output>

    <processing>
        <ignore-route-errors value="true"/>
        <time-to-teleport value="-1"/>
    </processing>

    <routing>
        <device.rerouting.adaptation-steps value="18"/>
        <device.rerouting.adaptation-interval value="10"/>
    </routing>

    <report>
        <verbose value="true"/>
        <no-warnings value="True"/>
        <duration-log.statistics value="true"/>
        <no-step-log value="True"/>
    </report>

    <traci_server>
        <remote-port value="63194"/>
    </traci_server>

    <random_number>
        <random value="true"/>
    </random_number>

    <gui_only>
        <gui-settings-file value="c:\self\School\Master\Disertation\code\RESCO\resco_benchmark\environments/unirii/osm.view.xml"/>
    </gui_only>

</configuration>
-->

<tripinfos xmlns:xsi="http://www.w3.org/2001/XMLSchema-instance" xsi:noNamespaceSchemaLocation="http://sumo.dlr.de/xsd/tripinfo_file.xsd">
    <tripinfo id="4" depart="9.00" departLane="-661251539_0" departPos="5.10" departSpeed="0.00" departDelay="0.53" arrival="78.00" arrivalLane="-256961141#1_1" arrivalPos="204.72" arrivalSpeed="13.77" duration="69.00" routeLength="872.91" waitingTime="0.00" waitingCount="0" stopTime="0.00" timeLoss="7.35" rerouteNo="0" devices="tripinfo_4" vType="DEFAULT_VEHTYPE" speedFactor="1.00" vaporized=""/>
    <tripinfo id="0" depart="0.00" departLane="65746828#0_0" departPos="5.10" departSpeed="0.00" departDelay="0.00" arrival="82.00" arrivalLane="-256961141#1_1" arrivalPos="204.72" arrivalSpeed="13.51" duration="82.00" routeLength="931.50" waitingTime="10.00" waitingCount="1" stopTime="0.00" timeLoss="22.30" rerouteNo="0" devices="tripinfo_0" vType="DEFAULT_VEHTYPE" speedFactor="1.04" vaporized=""/>
    <tripinfo id="16" depart="34.00" departLane="256961141#0_0" departPos="5.10" departSpeed="0.00" departDelay="0.12" arrival="117.00" arrivalLane="450554042#0_1" arrivalPos="622.66" arrivalSpeed="18.61" duration="83.00" routeLength="853.74" waitingTime="25.00" waitingCount="1" stopTime="0.00" timeLoss="35.40" rerouteNo="0" devices="tripinfo_16" vType="DEFAULT_VEHTYPE" speedFactor="1.15" vaporized=""/>
    <tripinfo id="50" depart="106.00" departLane="-218680176#1_0" departPos="5.10" departSpeed="0.00" departDelay="0.12" arrival="126.00" arrivalLane="231177697#0_0" arrivalPos="74.44" arrivalSpeed="12.98" duration="20.00" routeLength="205.97" waitingTime="0.00" waitingCount="0" stopTime="0.00" timeLoss="3.67" rerouteNo="0" devices="tripinfo_50" vType="DEFAULT_VEHTYPE" speedFactor="0.95" vaporized=""/>
    <tripinfo id="10" depart="23.00" departLane="978867529_0" departPos="5.10" departSpeed="0.00" departDelay="1.82" arrival="138.00" arrivalLane="231177697#0_1" arrivalPos="74.44" arrivalSpeed="15.29" duration="115.00" routeLength="437.06" waitingTime="78.00" waitingCount="1" stopTime="0.00" timeLoss="89.09" rerouteNo="0" devices="tripinfo_10" vType="DEFAULT_VEHTYPE" speedFactor="1.13" vaporized=""/>
    <tripinfo id="15" depart="33.00" departLane="978867529_0" departPos="5.10" departSpeed="0.00" departDelay="1.24" arrival="141.00" arrivalLane="231177697#0_1" arrivalPos="74.44" arrivalSpeed="12.21" duration="108.00" routeLength="437.06" waitingTime="67.00" waitingCount="1" stopTime="0.00" timeLoss="76.93" rerouteNo="0" devices="tripinfo_15" vType="DEFAULT_VEHTYPE" speedFactor="0.93" vaporized=""/>
    <tripinfo id="7" depart="15.00" departLane="65746828#0_0" departPos="5.10" departSpeed="0.00" departDelay="0.18" arrival="142.00" arrivalLane="218680176#0_1" arrivalPos="98.94" arrivalSpeed="10.87" duration="127.00" routeLength="602.71" waitingTime="60.00" waitingCount="2" stopTime="0.00" timeLoss="74.64" rerouteNo="0" devices="tripinfo_7" vType="DEFAULT_VEHTYPE" speedFactor="0.85" vaporized=""/>
    <tripinfo id="17" depart="36.00" departLane="-661251539_0" departPos="5.10" departSpeed="0.00" departDelay="0.00" arrival="143.00" arrivalLane="218680176#0_1" arrivalPos="98.94" arrivalSpeed="13.08" duration="107.00" routeLength="1001.21" waitingTime="16.00" waitingCount="1" stopTime="0.00" timeLoss="30.74" rerouteNo="0" devices="tripinfo_17" vType="DEFAULT_VEHTYPE" speedFactor="0.96" vaporized=""/>
    <tripinfo id="32" depart="68.00" departLane="978867529_0" departPos="5.10" departSpeed="0.00" departDelay="0.24" arrival="143.00" arrivalLane="231177697#0_1" arrivalPos="74.44" arrivalSpeed="13.14" duration="75.00" routeLength="437.06" waitingTime="35.00" waitingCount="1" stopTime="0.00" timeLoss="44.84" rerouteNo="0" devices="tripinfo_32" vType="DEFAULT_VEHTYPE" speedFactor="0.96" vaporized=""/>
    <tripinfo id="35" depart="75.00" departLane="-226276377#1_0" departPos="5.10" departSpeed="0.00" departDelay="0.88" arrival="146.00" arrivalLane="450554042#0_0" arrivalPos="622.66" arrivalSpeed="16.24" duration="71.00" routeLength="763.53" waitingTime="12.00" waitingCount="1" stopTime="0.00" timeLoss="22.05" rerouteNo="0" devices="tripinfo_35" vType="DEFAULT_VEHTYPE" speedFactor="0.98" vaporized=""/>
    <tripinfo id="3" depart="7.00" departLane="E8_0" departPos="5.10" departSpeed="0.00" departDelay="0.65" arrival="147.00" arrivalLane="-256961141#1_0" arrivalPos="204.72" arrivalSpeed="13.32" duration="140.00" routeLength="832.89" waitingTime="69.00" waitingCount="1" stopTime="0.00" timeLoss="79.52" rerouteNo="0" devices="tripinfo_3" vType="DEFAULT_VEHTYPE" speedFactor="1.01" vaporized=""/>
    <tripinfo id="40" depart="85.00" departLane="65746828#0_0" departPos="5.10" departSpeed="0.00" departDelay="0.29" arrival="156.00" arrivalLane="210831345#1_0" arrivalPos="264.29" arrivalSpeed="12.30" duration="71.00" routeLength="446.75" waitingTime="28.00" waitingCount="1" stopTime="0.00" timeLoss="36.89" rerouteNo="0" devices="tripinfo_40" vType="DEFAULT_VEHTYPE" speedFactor="0.94" vaporized=""/>
    <tripinfo id="51" depart="108.00" departLane="666135205#0_0" departPos="5.10" departSpeed="0.00" departDelay="0.00" arrival="164.00" arrivalLane="218680176#0_1" arrivalPos="98.94" arrivalSpeed="13.80" duration="56.00" routeLength="693.09" waitingTime="0.00" waitingCount="0" stopTime="0.00" timeLoss="7.49" rerouteNo="0" devices="tripinfo_51" vType="DEFAULT_VEHTYPE" speedFactor="1.05" vaporized=""/>
    <tripinfo id="47" depart="100.00" departLane="-218680176#1_0" departPos="5.10" departSpeed="0.00" departDelay="0.47" arrival="169.00" arrivalLane="210831347#0_0" arrivalPos="149.88" arrivalSpeed="12.25" duration="69.00" routeLength="560.58" waitingTime="12.00" waitingCount="1" stopTime="0.00" timeLoss="24.47" rerouteNo="0" devices="tripinfo_47" vType="DEFAULT_VEHTYPE" speedFactor="0.94" vaporized=""/>
    <tripinfo id="27" depart="58.00" departLane="65746828#0_0" departPos="5.10" departSpeed="0.00" departDelay="0.82" arrival="178.00" arrivalLane="226276377#0_0" arrivalPos="135.52" arrivalSpeed="13.38" duration="120.00" routeLength="841.69" waitingTime="52.00" waitingCount="1" stopTime="0.00" timeLoss="65.36" rerouteNo="0" devices="tripinfo_27" vType="DEFAULT_VEHTYPE" speedFactor="1.02" vaporized=""/>
    <tripinfo id="30" depart="64.00" departLane="E8_0" departPos="5.10" departSpeed="0.00" departDelay="0.47" arrival="193.00" arrivalLane="226276377#0_1" arrivalPos="135.52" arrivalSpeed="13.43" duration="129.00" routeLength="784.51" waitingTime="59.00" waitingCount="1" stopTime="0.00" timeLoss="70.13" rerouteNo="0" devices="tripinfo_30" vType="DEFAULT_VEHTYPE" speedFactor="0.97" vaporized=""/>
    <tripinfo id="29" depart="63.00" departLane="-226276377#1_0" departPos="5.10" departSpeed="0.00" departDelay="1.59" arrival="196.00" arrivalLane="210831347#0_1" arrivalPos="149.88" arrivalSpeed="12.21" duration="133.00" routeLength="888.52" waitingTime="49.00" waitingCount="2" stopTime="0.00" timeLoss="65.56" rerouteNo="0" devices="tripinfo_29" vType="DEFAULT_VEHTYPE" speedFactor="0.91" vaporized=""/>
    <tripinfo id="12" depart="26.00" departLane="E8_0" departPos="5.10" departSpeed="0.00" departDelay="0.59" arrival="198.00" arrivalLane="210831347#0_1" arrivalPos="149.88" arrivalSpeed="11.59" duration="172.00" routeLength="1367.17" waitingTime="49.00" waitingCount="2" stopTime="0.00" timeLoss="68.62" rerouteNo="0" devices="tripinfo_12" vType="DEFAULT_VEHTYPE" speedFactor="0.92" vaporized=""/>
    <tripinfo id="20" depart="43.00" departLane="666135205#0_0" departPos="5.10" departSpeed="0.00" departDelay="0.65" arrival="201.00" arrivalLane="-256961141#1_1" arrivalPos="204.72" arrivalSpeed="11.66" duration="158.00" routeLength="1068.72" waitingTime="64.00" waitingCount="1" stopTime="0.00" timeLoss="75.60" rerouteNo="0" devices="tripinfo_20" vType="DEFAULT_VEHTYPE" speedFactor="0.87" vaporized=""/>
    <tripinfo id="13" depart="28.00" departLane="-218680176#1_0" departPos="5.10" departSpeed="0.00" departDelay="0.47" arrival="203.00" arrivalLane="-256961141#1_1" arrivalPos="204.72" arrivalSpeed="11.66" duration="175.00" routeLength="1207.38" waitingTime="66.00" waitingCount="2" stopTime="0.00" timeLoss="85.36" rerouteNo="0" devices="tripinfo_13" vType="DEFAULT_VEHTYPE" speedFactor="0.91" vaporized=""/>
    <tripinfo id="22" depart="47.00" departLane="-218680176#1_0" departPos="5.10" departSpeed="0.00" departDelay="0.41" arrival="203.00" arrivalLane="210831345#1_1" arrivalPos="264.29" arrivalSpeed="13.62" duration="156.00" routeLength="699.94" waitingTime="91.00" waitingCount="1" stopTime="0.00" timeLoss="103.42" rerouteNo="0" devices="tripinfo_22" vType="DEFAULT_VEHTYPE" speedFactor="0.99" vaporized=""/>
    <tripinfo id="6" depart="13.00" departLane="-218680176#1_0" departPos="5.10" departSpeed="0.00" departDelay="0.29" arrival="204.00" arrivalLane="153964138#0_2" arrivalPos="337.99" arrivalSpeed="15.49" duration="191.00" routeLength="462.27" waitingTime="152.00" waitingCount="1" stopTime="0.00" timeLoss="160.79" rerouteNo="0" devices="tripinfo_6" vType="DEFAULT_VEHTYPE" speedFactor="0.98" vaporized=""/>
    <tripinfo id="44" depart="94.00" departLane="-218680176#1_0" departPos="5.10" departSpeed="0.00" departDelay="0.82" arrival="204.00" arrivalLane="-256961141#1_1" arrivalPos="204.72" arrivalSpeed="14.64" duration="110.00" routeLength="1207.38" waitingTime="24.00" waitingCount="1" stopTime="0.00" timeLoss="41.62" rerouteNo="0" devices="tripinfo_44" vType="DEFAULT_VEHTYPE" speedFactor="1.19" vaporized=""/>
    <tripinfo id="23" depart="50.00" departLane="-218680176#1_0" departPos="5.10" departSpeed="0.00" departDelay="1.29" arrival="207.00" arrivalLane="210831345#1_0" arrivalPos="264.29" arrivalSpeed="12.29" duration="157.00" routeLength="699.94" waitingTime="87.00" waitingCount="1" stopTime="0.00" timeLoss="100.69" rerouteNo="0" devices="tripinfo_23" vType="DEFAULT_VEHTYPE" speedFactor="0.92" vaporized=""/>
    <tripinfo id="49" depart="105.00" departLane="E8_0" departPos="5.10" departSpeed="0.00" departDelay="1.24" arrival="207.00" arrivalLane="39907424_0" arrivalPos="316.44" arrivalSpeed="13.19" duration="102.00" routeLength="1303.68" waitingTime="0.00" waitingCount="0" stopTime="0.00" timeLoss="10.58" rerouteNo="0" devices="tripinfo_49" vType="DEFAULT_VEHTYPE" speedFactor="0.99" vaporized=""/>
    <tripinfo id="62" depart="132.00" departLane="-218680176#1_0" departPos="5.10" departSpeed="0.00" departDelay="0.71" arrival="208.00" arrivalLane="210831345#1_1" arrivalPos="264.29" arrivalSpeed="13.35" duration="76.00" routeLength="699.94" waitingTime="8.00" waitingCount="2" stopTime="0.00" timeLoss="24.03" rerouteNo="0" devices="tripinfo_62" vType="DEFAULT_VEHTYPE" speedFactor="0.98" vaporized=""/>
    <tripinfo id="2" depart="5.00" departLane="666135205#0_0" departPos="5.10" departSpeed="0.00" departDelay="0.76" arrival="212.00" arrivalLane="231177697#0_0" arrivalPos="74.44" arrivalSpeed="11.47" duration="207.00" routeLength="649.17" waitingTime="142.00" waitingCount="1" stopTime="0.00" timeLoss="153.21" rerouteNo="0" devices="tripinfo_2" vType="DEFAULT_VEHTYPE" speedFactor="0.90" vaporized=""/>
    <tripinfo id="41" depart="88.00" departLane="65746828#0_0" departPos="5.10" departSpeed="0.00" departDelay="1.18" arrival="214.00" arrivalLane="450554042#0_0" arrivalPos="622.66" arrivalSpeed="14.98" duration="126.00" routeLength="1340.72" waitingTime="25.00" waitingCount="1" stopTime="0.00" timeLoss="39.23" rerouteNo="0" devices="tripinfo_41" vType="DEFAULT_VEHTYPE" speedFactor="0.96" vaporized=""/>
    <tripinfo id="31" depart="66.00" departLane="65746828#0_0" departPos="5.10" departSpeed="0.00" departDelay="0.35" arrival="215.00" arrivalLane="231177697#0_0" arrivalPos="74.44" arrivalSpeed="12.50" duration="149.00" routeLength="558.79" waitingTime="90.00" waitingCount="2" stopTime="0.00" timeLoss="106.38" rerouteNo="0" devices="tripinfo_31" vType="DEFAULT_VEHTYPE" speedFactor="0.99" vaporized=""/>
    <tripinfo id="28" depart="60.00" departLane="-226276377#1_0" departPos="5.10" departSpeed="0.00" departDelay="0.71" arrival="217.00" arrivalLane="231177697#0_0" arrivalPos="74.44" arrivalSpeed="12.24" duration="157.00" routeLength="1114.63" waitingTime="52.00" waitingCount="3" stopTime="0.00" timeLoss="74.52" rerouteNo="0" devices="tripinfo_28" vType="DEFAULT_VEHTYPE" speedFactor="0.94" vaporized=""/>
    <tripinfo id="61" depart="130.00" departLane="978867529_0" departPos="5.10" departSpeed="0.00" departDelay="0.82" arrival="219.00" arrivalLane="218680176#0_0" arrivalPos="98.94" arrivalSpeed="13.78" duration="89.00" routeLength="442.15" waitingTime="46.00" waitingCount="1" stopTime="0.00" timeLoss="59.80" rerouteNo="0" devices="tripinfo_61" vType="DEFAULT_VEHTYPE" speedFactor="1.01" vaporized=""/>
    <tripinfo id="11" depart="24.00" departLane="-661251539_0" departPos="5.10" departSpeed="0.00" departDelay="0.71" arrival="227.00" arrivalLane="153964138#0_0" arrivalPos="337.99" arrivalSpeed="16.94" duration="203.00" routeLength="1239.04" waitingTime="102.00" waitingCount="2" stopTime="0.00" timeLoss="122.63" rerouteNo="0" devices="tripinfo_11" vType="DEFAULT_VEHTYPE" speedFactor="1.07" vaporized=""/>
    <tripinfo id="42" depart="89.00" departLane="-661251539_0" departPos="5.10" departSpeed="0.00" departDelay="0.06" arrival="227.00" arrivalLane="153964138#0_2" arrivalPos="337.99" arrivalSpeed="17.70" duration="138.00" routeLength="1239.04" waitingTime="40.00" waitingCount="2" stopTime="0.00" timeLoss="62.55" rerouteNo="0" devices="tripinfo_42" vType="DEFAULT_VEHTYPE" speedFactor="1.14" vaporized=""/>
    <tripinfo id="25" depart="53.00" departLane="-661251539_0" departPos="5.10" departSpeed="0.00" departDelay="0.06" arrival="231.00" arrivalLane="153964138#0_1" arrivalPos="337.99" arrivalSpeed="15.52" duration="178.00" routeLength="1239.04" waitingTime="71.00" waitingCount="2" stopTime="0.00" timeLoss="89.24" rerouteNo="0" devices="tripinfo_25" vType="DEFAULT_VEHTYPE" speedFactor="0.97" vaporized=""/>
    <tripinfo id="5" depart="11.00" departLane="-226276377#1_0" departPos="5.10" departSpeed="0.00" departDelay="0.41" arrival="241.00" arrivalLane="218680176#0_1" arrivalPos="98.94" arrivalSpeed="14.48" duration="230.00" routeLength="1158.55" waitingTime="130.00" waitingCount="3" stopTime="0.00" timeLoss="152.49" rerouteNo="0" devices="tripinfo_5" vType="DEFAULT_VEHTYPE" speedFactor="1.05" vaporized=""/>
    <tripinfo id="38" depart="81.00" departLane="E8_0" departPos="5.10" departSpeed="0.00" departDelay="0.53" arrival="242.00" arrivalLane="218680176#0_1" arrivalPos="98.94" arrivalSpeed="14.25" duration="161.00" routeLength="1637.20" waitingTime="39.00" waitingCount="1" stopTime="0.00" timeLoss="55.93" rerouteNo="0" devices="tripinfo_38" vType="DEFAULT_VEHTYPE" speedFactor="1.09" vaporized=""/>
    <tripinfo id="60" depart="128.00" departLane="666135205#0_0" departPos="5.10" departSpeed="0.00" departDelay="0.94" arrival="246.00" arrivalLane="218680176#0_1" arrivalPos="98.94" arrivalSpeed="12.07" duration="118.00" routeLength="693.09" waitingTime="42.00" waitingCount="2" stopTime="0.00" timeLoss="60.78" rerouteNo="0" devices="tripinfo_60" vType="DEFAULT_VEHTYPE" speedFactor="0.91" vaporized=""/>
    <tripinfo id="48" depart="102.00" departLane="E8_0" departPos="5.10" departSpeed="0.00" departDelay="0.35" arrival="247.00" arrivalLane="218680176#0_1" arrivalPos="98.94" arrivalSpeed="13.99" duration="145.00" routeLength="1637.20" waitingTime="16.00" waitingCount="2" stopTime="0.00" timeLoss="40.50" rerouteNo="0" devices="tripinfo_48" vType="DEFAULT_VEHTYPE" speedFactor="1.09" vaporized=""/>
    <tripinfo id="43" depart="92.00" departLane="E8_0" departPos="5.10" departSpeed="0.00" departDelay="0.94" arrival="249.00" arrivalLane="218680176#0_1" arrivalPos="98.94" arrivalSpeed="13.53" duration="157.00" routeLength="1637.20" waitingTime="22.00" waitingCount="1" stopTime="0.00" timeLoss="47.47" rerouteNo="0" devices="tripinfo_43" vType="DEFAULT_VEHTYPE" speedFactor="1.05" vaporized=""/>
    <tripinfo id="76" depart="161.00" departLane="-661251539_0" departPos="5.10" departSpeed="0.00" departDelay="0.06" arrival="252.00" arrivalLane="218680176#0_1" arrivalPos="98.94" arrivalSpeed="12.48" duration="91.00" routeLength="1001.21" waitingTime="0.00" waitingCount="0" stopTime="0.00" timeLoss="11.97" rerouteNo="0" devices="tripinfo_76" vType="DEFAULT_VEHTYPE" speedFactor="0.93" vaporized=""/>
    <tripinfo id="86" depart="183.00" departLane="256961141#0_0" departPos="5.10" departSpeed="0.00" departDelay="0.88" arrival="258.00" arrivalLane="39907424_0" arrivalPos="316.44" arrivalSpeed="13.94" duration="75.00" routeLength="873.95" waitingTime="0.00" waitingCount="0" stopTime="0.00" timeLoss="19.30" rerouteNo="0" devices="tripinfo_86" vType="DEFAULT_VEHTYPE" speedFactor="1.09" vaporized=""/>
    <tripinfo id="68" depart="144.00" departLane="-218680176#1_0" departPos="5.10" departSpeed="0.00" departDelay="0.00" arrival="259.00" arrivalLane="231177697#0_0" arrivalPos="74.44" arrivalSpeed="14.71" duration="115.00" routeLength="205.97" waitingTime="87.00" waitingCount="2" stopTime="0.00" timeLoss="100.95" rerouteNo="0" devices="tripinfo_68" vType="DEFAULT_VEHTYPE" speedFactor="1.11" vaporized=""/>
    <tripinfo id="71" depart="151.00" departLane="-231177697#2_0" departPos="5.10" departSpeed="0.00" departDelay="0.65" arrival="271.00" arrivalLane="39907424_0" arrivalPos="316.44" arrivalSpeed="10.44" duration="120.00" routeLength="961.15" waitingTime="21.00" waitingCount="2" stopTime="0.00" timeLoss="35.15" rerouteNo="0" devices="tripinfo_71" vType="DEFAULT_VEHTYPE" speedFactor="0.80" vaporized=""/>
    <tripinfo id="79" depart="168.00" departLane="-231177697#2_0" departPos="5.10" departSpeed="0.00" departDelay="0.71" arrival="276.00" arrivalLane="153964138#0_0" arrivalPos="337.99" arrivalSpeed="13.33" duration="108.00" routeLength="417.38" waitingTime="61.00" waitingCount="2" stopTime="0.00" timeLoss="76.75" rerouteNo="0" devices="tripinfo_79" vType="DEFAULT_VEHTYPE" speedFactor="0.84" vaporized=""/>
    <tripinfo id="108" depart="229.00" departLane="65746828#0_0" departPos="5.10" departSpeed="0.00" departDelay="0.29" arrival="291.00" arrivalLane="231177697#0_0" arrivalPos="74.44" arrivalSpeed="11.86" duration="62.00" routeLength="558.79" waitingTime="3.00" waitingCount="1" stopTime="0.00" timeLoss="13.25" rerouteNo="0" devices="tripinfo_108" vType="DEFAULT_VEHTYPE" speedFactor="0.86" vaporized=""/>
    <tripinfo id="90" depart="191.00" departLane="666135205#0_0" departPos="5.10" departSpeed="0.00" departDelay="0.41" arrival="293.00" arrivalLane="231177697#0_0" arrivalPos="74.44" arrivalSpeed="14.09" duration="102.00" routeLength="649.17" waitingTime="37.00" waitingCount="1" stopTime="0.00" timeLoss="56.50" rerouteNo="0" devices="tripinfo_90" vType="DEFAULT_VEHTYPE" speedFactor="1.08" vaporized=""/>
    <tripinfo id="54" depart="115.00" departLane="256961141#0_0" departPos="5.10" departSpeed="0.00" departDelay="0.65" arrival="294.00" arrivalLane="450554042#0_1" arrivalPos="622.66" arrivalSpeed="17.71" duration="179.00" routeLength="853.74" waitingTime="118.00" waitingCount="1" stopTime="0.00" timeLoss="128.49" rerouteNo="0" devices="tripinfo_54" vType="DEFAULT_VEHTYPE" speedFactor="1.08" vaporized=""/>
    <tripinfo id="117" depart="248.00" departLane="-231177697#2_0" departPos="5.10" departSpeed="0.00" departDelay="0.24" arrival="299.00" arrivalLane="153964138#0_0" arrivalPos="337.99" arrivalSpeed="15.64" duration="51.00" routeLength="417.38" waitingTime="14.00" waitingCount="1" stopTime="0.00" timeLoss="22.64" rerouteNo="0" devices="tripinfo_117" vType="DEFAULT_VEHTYPE" speedFactor="0.95" vaporized=""/>
    <tripinfo id="69" depart="147.00" departLane="666135205#0_0" departPos="5.10" departSpeed="0.00" departDelay="0.88" arrival="300.00" arrivalLane="153964138#0_2" arrivalPos="337.99" arrivalSpeed="17.54" duration="153.00" routeLength="924.87" waitingTime="78.00" waitingCount="2" stopTime="0.00" timeLoss="93.17" rerouteNo="0" devices="tripinfo_69" vType="DEFAULT_VEHTYPE" speedFactor="1.06" vaporized=""/>
    <tripinfo id="72" depart="153.00" departLane="-661251539_0" departPos="5.10" departSpeed="0.00" departDelay="0.53" arrival="303.00" arrivalLane="153964138#0_0" arrivalPos="337.99" arrivalSpeed="16.25" duration="150.00" routeLength="1239.04" waitingTime="42.00" waitingCount="1" stopTime="0.00" timeLoss="66.19" rerouteNo="0" devices="tripinfo_72" vType="DEFAULT_VEHTYPE" speedFactor="1.02" vaporized=""/>
    <tripinfo id="59" depart="125.00" departLane="65746828#0_0" departPos="5.10" departSpeed="0.00" departDelay="0.06" arrival="304.00" arrivalLane="153964138#0_0" arrivalPos="337.99" arrivalSpeed="16.12" duration="179.00" routeLength="834.49" waitingTime="104.00" waitingCount="2" stopTime="0.00" timeLoss="123.06" rerouteNo="0" devices="tripinfo_59" vType="DEFAULT_VEHTYPE" speedFactor="1.02" vaporized=""/>
    <tripinfo id="45" depart="97.00" departLane="-218680176#1_0" departPos="5.10" departSpeed="0.00" departDelay="1.71" arrival="316.00" arrivalLane="226276377#0_0" arrivalPos="135.52" arrivalSpeed="13.71" duration="219.00" routeLength="1117.57" waitingTime="125.00" waitingCount="2" stopTime="0.00" timeLoss="144.84" rerouteNo="0" devices="tripinfo_45" vType="DEFAULT_VEHTYPE" speedFactor="1.02" vaporized=""/>
    <tripinfo id="114" depart="242.00" departLane="-226276377#1_0" departPos="5.10" departSpeed="0.00" departDelay="0.59" arrival="318.00" arrivalLane="450554042#0_0" arrivalPos="622.66" arrivalSpeed="18.04" duration="76.00" routeLength="763.53" waitingTime="19.00" waitingCount="1" stopTime="0.00" timeLoss="31.18" rerouteNo="0" devices="tripinfo_114" vType="DEFAULT_VEHTYPE" speedFactor="1.10" vaporized=""/>
    <tripinfo id="78" depart="166.00" departLane="-661251539_0" departPos="5.10" departSpeed="0.00" departDelay="0.82" arrival="319.00" arrivalLane="226276377#0_0" arrivalPos="135.52" arrivalSpeed="14.35" duration="153.00" routeLength="783.10" waitingTime="87.00" waitingCount="1" stopTime="0.00" timeLoss="100.57" rerouteNo="0" devices="tripinfo_78" vType="DEFAULT_VEHTYPE" speedFactor="1.05" vaporized=""/>
    <tripinfo id="120" depart="255.00" departLane="-661251539_0" departPos="5.10" departSpeed="0.00" departDelay="0.88" arrival="322.00" arrivalLane="226276377#0_0" arrivalPos="135.52" arrivalSpeed="14.12" duration="67.00" routeLength="783.10" waitingTime="3.00" waitingCount="1" stopTime="0.00" timeLoss="17.50" rerouteNo="0" devices="tripinfo_120" vType="DEFAULT_VEHTYPE" speedFactor="1.10" vaporized=""/>
    <tripinfo id="91" depart="193.00" departLane="E8_0" departPos="5.10" departSpeed="0.00" departDelay="0.29" arrival="325.00" arrivalLane="-256961141#1_0" arrivalPos="204.72" arrivalSpeed="10.56" duration="132.00" routeLength="832.89" waitingTime="50.00" waitingCount="1" stopTime="0.00" timeLoss="59.79" rerouteNo="0" devices="tripinfo_91" vType="DEFAULT_VEHTYPE" speedFactor="0.84" vaporized=""/>
    <tripinfo id="119" depart="252.00" departLane="65746828#0_0" departPos="5.10" departSpeed="0.00" departDelay="0.00" arrival="327.00" arrivalLane="226276377#0_0" arrivalPos="135.52" arrivalSpeed="12.29" duration="75.00" routeLength="841.69" waitingTime="0.00" waitingCount="0" stopTime="0.00" timeLoss="14.02" rerouteNo="0" devices="tripinfo_119" vType="DEFAULT_VEHTYPE" speedFactor="0.92" vaporized=""/>
    <tripinfo id="115" depart="244.00" departLane="-218680176#1_0" departPos="5.10" departSpeed="0.00" departDelay="0.47" arrival="330.00" arrivalLane="153964138#0_2" arrivalPos="337.99" arrivalSpeed="15.14" duration="86.00" routeLength="462.27" waitingTime="44.00" waitingCount="1" stopTime="0.00" timeLoss="54.77" rerouteNo="0" devices="tripinfo_115" vType="DEFAULT_VEHTYPE" speedFactor="0.95" vaporized=""/>
    <tripinfo id="128" depart="272.00" departLane="-218680176#1_0" departPos="5.10" departSpeed="0.00" departDelay="0.94" arrival="332.00" arrivalLane="153964138#0_2" arrivalPos="337.99" arrivalSpeed="15.24" duration="60.00" routeLength="462.27" waitingTime="19.00" waitingCount="1" stopTime="0.00" timeLoss="28.47" rerouteNo="0" devices="tripinfo_128" vType="DEFAULT_VEHTYPE" speedFactor="0.94" vaporized=""/>
    <tripinfo id="113" depart="240.00" departLane="256961141#0_0" departPos="5.10" departSpeed="0.00" departDelay="0.71" arrival="333.00" arrivalLane="39907424_0" arrivalPos="316.44" arrivalSpeed="12.80" duration="93.00" routeLength="873.95" waitingTime="18.00" waitingCount="1" stopTime="0.00" timeLoss="30.15" rerouteNo="0" devices="tripinfo_113" vType="DEFAULT_VEHTYPE" speedFactor="0.96" vaporized=""/>
    <tripinfo id="63" depart="135.00" departLane="-218680176#1_0" departPos="5.10" departSpeed="0.00" departDelay="1.59" arrival="340.00" arrivalLane="450554042#0_0" arrivalPos="622.66" arrivalSpeed="18.63" duration="205.00" routeLength="1616.60" waitingTime="87.00" waitingCount="4" stopTime="0.00" timeLoss="117.72" rerouteNo="0" devices="tripinfo_63" vType="DEFAULT_VEHTYPE" speedFactor="1.18" vaporized=""/>
    <tripinfo id="145" depart="308.00" departLane="-218680176#1_0" departPos="5.10" departSpeed="0.00" departDelay="0.94" arrival="342.00" arrivalLane="231177697#0_0" arrivalPos="74.44" arrivalSpeed="13.34" duration="34.00" routeLength="205.97" waitingTime="10.00" waitingCount="1" stopTime="0.00" timeLoss="19.87" rerouteNo="0" devices="tripinfo_145" vType="DEFAULT_VEHTYPE" speedFactor="1.05" vaporized=""/>
    <tripinfo id="26" depart="56.00" departLane="-231177697#2_0" departPos="5.10" departSpeed="0.00" departDelay="0.94" arrival="349.00" arrivalLane="450554042#0_0" arrivalPos="622.66" arrivalSpeed="14.87" duration="293.00" routeLength="1613.58" waitingTime="162.00" waitingCount="2" stopTime="0.00" timeLoss="182.19" rerouteNo="0" devices="tripinfo_26" vType="DEFAULT_VEHTYPE" speedFactor="0.93" vaporized=""/>
    <tripinfo id="104" depart="222.00" departLane="-661251539_0" departPos="5.10" departSpeed="0.00" departDelay="1.76" arrival="349.00" arrivalLane="450554042#0_1" arrivalPos="622.66" arrivalSpeed="16.58" duration="127.00" routeLength="1282.13" waitingTime="23.00" waitingCount="2" stopTime="0.00" timeLoss="48.04" rerouteNo="0" devices="tripinfo_104" vType="DEFAULT_VEHTYPE" speedFactor="1.04" vaporized=""/>
    <tripinfo id="81" depart="172.00" departLane="-231177697#2_0" departPos="5.10" departSpeed="0.00" departDelay="0.47" arrival="358.00" arrivalLane="450554042#0_0" arrivalPos="622.66" arrivalSpeed="12.79" duration="186.00" routeLength="1613.58" waitingTime="35.00" waitingCount="3" stopTime="0.00" timeLoss="57.36" rerouteNo="0" devices="tripinfo_81" vType="DEFAULT_VEHTYPE" speedFactor="0.80" vaporized=""/>
    <tripinfo id="141" depart="299.00" departLane="65746828#0_0" departPos="5.10" departSpeed="0.00" departDelay="0.41" arrival="358.00" arrivalLane="210831345#1_0" arrivalPos="264.29" arrivalSpeed="13.30" duration="59.00" routeLength="446.75" waitingTime="12.00" waitingCount="1" stopTime="0.00" timeLoss="25.45" rerouteNo="0" devices="tripinfo_141" vType="DEFAULT_VEHTYPE" speedFactor="0.96" vaporized=""/>
    <tripinfo id="57" depart="121.00" departLane="E8_0" departPos="5.10" departSpeed="0.00" departDelay="0.29" arrival="364.00" arrivalLane="39907424_0" arrivalPos="316.44" arrivalSpeed="11.14" duration="243.00" routeLength="1303.68" waitingTime="119.00" waitingCount="1" stopTime="0.00" timeLoss="133.41" rerouteNo="0" devices="tripinfo_57" vType="DEFAULT_VEHTYPE" speedFactor="0.83" vaporized=""/>
    <tripinfo id="146" depart="310.00" departLane="65746828#0_0" departPos="5.10" departSpeed="0.00" departDelay="0.82" arrival="364.00" arrivalLane="210831345#1_0" arrivalPos="264.29" arrivalSpeed="10.61" duration="54.00" routeLength="446.75" waitingTime="4.00" waitingCount="1" stopTime="0.00" timeLoss="15.17" rerouteNo="0" devices="tripinfo_146" vType="DEFAULT_VEHTYPE" speedFactor="0.84" vaporized=""/>
    <tripinfo id="99" depart="210.00" departLane="E8_0" departPos="5.10" departSpeed="0.00" departDelay="0.35" arrival="366.00" arrivalLane="39907424_0" arrivalPos="316.44" arrivalSpeed="14.75" duration="156.00" routeLength="1303.68" waitingTime="44.00" waitingCount="1" stopTime="0.00" timeLoss="76.03" rerouteNo="0" devices="tripinfo_99" vType="DEFAULT_VEHTYPE" speedFactor="1.14" vaporized=""/>