<?xml version="1.0" encoding="UTF-8"?>

<!-- generated on 2024-09-02 16:10:42 by Eclipse SUMO sumo Version 1.20.0
<configuration xmlns:xsi="http://www.w3.org/2001/XMLSchema-instance" xsi:noNamespaceSchemaLocation="http://sumo.dlr.de/xsd/sumoConfiguration.xsd">

    <input>
        <net-file value="c:\self\School\Master\Disertation\code\RESCO\resco_benchmark\environments/unirii/osm.net.xml.gz"/>
        <route-files value="c:\self\School\Master\Disertation\code\RESCO\resco_benchmark\environments/unirii/osm.passenger.trips.xml"/>
        <additional-files value="c:\self\School\Master\Disertation\code\RESCO\resco_benchmark\environments/unirii/osm.poly.xml.gz"/>
    </input>

    <output>
        <tripinfo-output value="C:\self\School\Master\Disertation\code\RESCO\results\IDQN-tr0-unirii-0-drq-wait\tripinfo_100.xml"/>
        <tripinfo-output.write-unfinished value="true"/>
    </output>

    <processing>
        <ignore-route-errors value="true"/>
        <time-to-teleport value="-1"/>
    </processing>

    <routing>
        <device.rerouting.adaptation-steps value="18"/>
        <device.rerouting.adaptation-interval value="10"/>
    </routing>

    <report>
        <verbose value="true"/>
        <no-warnings value="True"/>
        <duration-log.statistics value="true"/>
        <no-step-log value="True"/>
    </report>

    <traci_server>
        <remote-port value="63772"/>
    </traci_server>

    <random_number>
        <random value="true"/>
    </random_number>

    <gui_only>
        <gui-settings-file value="c:\self\School\Master\Disertation\code\RESCO\resco_benchmark\environments/unirii/osm.view.xml"/>
    </gui_only>

</configuration>
-->

<tripinfos xmlns:xsi="http://www.w3.org/2001/XMLSchema-instance" xsi:noNamespaceSchemaLocation="http://sumo.dlr.de/xsd/tripinfo_file.xsd">
    <tripinfo id="6" depart="13.00" departLane="-218680176#1_0" departPos="5.10" departSpeed="0.00" departDelay="0.29" arrival="54.00" arrivalLane="153964138#0_2" arrivalPos="337.99" arrivalSpeed="15.10" duration="41.00" routeLength="462.27" waitingTime="2.00" waitingCount="1" stopTime="0.00" timeLoss="10.57" rerouteNo="0" devices="tripinfo_6" vType="DEFAULT_VEHTYPE" speedFactor="0.98" vaporized=""/>
    <tripinfo id="10" depart="23.00" departLane="978867529_0" departPos="5.10" departSpeed="0.00" departDelay="1.82" arrival="63.00" arrivalLane="231177697#0_1" arrivalPos="74.44" arrivalSpeed="15.01" duration="40.00" routeLength="437.06" waitingTime="3.00" waitingCount="1" stopTime="0.00" timeLoss="13.71" rerouteNo="0" devices="tripinfo_10" vType="DEFAULT_VEHTYPE" speedFactor="1.11" vaporized=""/>
    <tripinfo id="15" depart="33.00" departLane="978867529_0" departPos="5.10" departSpeed="0.00" departDelay="1.24" arrival="64.00" arrivalLane="231177697#0_1" arrivalPos="74.44" arrivalSpeed="15.69" duration="31.00" routeLength="437.06" waitingTime="0.00" waitingCount="0" stopTime="0.00" timeLoss="8.19" rerouteNo="0" devices="tripinfo_15" vType="DEFAULT_VEHTYPE" speedFactor="1.25" vaporized=""/>
    <tripinfo id="7" depart="15.00" departLane="65746828#0_0" departPos="5.10" departSpeed="0.00" departDelay="0.18" arrival="69.00" arrivalLane="218680176#0_1" arrivalPos="98.94" arrivalSpeed="12.66" duration="54.00" routeLength="602.71" waitingTime="0.00" waitingCount="0" stopTime="0.00" timeLoss="6.08" rerouteNo="0" devices="tripinfo_7" vType="DEFAULT_VEHTYPE" speedFactor="0.94" vaporized=""/>
    <tripinfo id="4" depart="9.00" departLane="-661251539_0" departPos="5.10" departSpeed="0.00" departDelay="0.53" arrival="89.00" arrivalLane="-256961141#1_1" arrivalPos="204.72" arrivalSpeed="11.62" duration="80.00" routeLength="872.91" waitingTime="0.00" waitingCount="0" stopTime="0.00" timeLoss="7.81" rerouteNo="0" devices="tripinfo_4" vType="DEFAULT_VEHTYPE" speedFactor="0.84" vaporized=""/>
    <tripinfo id="2" depart="5.00" departLane="666135205#0_0" departPos="5.10" departSpeed="0.00" departDelay="0.76" arrival="113.00" arrivalLane="231177697#0_0" arrivalPos="74.44" arrivalSpeed="12.72" duration="108.00" routeLength="649.17" waitingTime="39.00" waitingCount="2" stopTime="0.00" timeLoss="56.40" rerouteNo="0" devices="tripinfo_2" vType="DEFAULT_VEHTYPE" speedFactor="0.94" vaporized=""/>
    <tripinfo id="27" depart="58.00" departLane="65746828#0_0" departPos="5.10" departSpeed="0.00" departDelay="0.82" arrival="118.00" arrivalLane="226276377#0_0" arrivalPos="135.52" arrivalSpeed="15.33" duration="60.00" routeLength="841.69" waitingTime="0.00" waitingCount="0" stopTime="0.00" timeLoss="9.66" rerouteNo="0" devices="tripinfo_27" vType="DEFAULT_VEHTYPE" speedFactor="1.12" vaporized=""/>
    <tripinfo id="31" depart="66.00" departLane="65746828#0_0" departPos="5.10" departSpeed="0.00" departDelay="0.35" arrival="118.00" arrivalLane="231177697#0_0" arrivalPos="74.44" arrivalSpeed="12.44" duration="52.00" routeLength="558.79" waitingTime="0.00" waitingCount="0" stopTime="0.00" timeLoss="6.61" rerouteNo="0" devices="tripinfo_31" vType="DEFAULT_VEHTYPE" speedFactor="0.91" vaporized=""/>
    <tripinfo id="3" depart="7.00" departLane="E8_0" departPos="5.10" departSpeed="0.00" departDelay="0.65" arrival="121.00" arrivalLane="-256961141#1_0" arrivalPos="204.72" arrivalSpeed="14.02" duration="114.00" routeLength="832.89" waitingTime="46.00" waitingCount="1" stopTime="0.00" timeLoss="56.03" rerouteNo="0" devices="tripinfo_3" vType="DEFAULT_VEHTYPE" speedFactor="1.06" vaporized=""/>
    <tripinfo id="16" depart="34.00" departLane="256961141#0_0" departPos="5.10" departSpeed="0.00" departDelay="0.12" arrival="122.00" arrivalLane="450554042#0_0" arrivalPos="622.66" arrivalSpeed="16.00" duration="88.00" routeLength="853.74" waitingTime="23.00" waitingCount="1" stopTime="0.00" timeLoss="32.53" rerouteNo="0" devices="tripinfo_16" vType="DEFAULT_VEHTYPE" speedFactor="0.98" vaporized=""/>
    <tripinfo id="30" depart="64.00" departLane="E8_0" departPos="5.10" departSpeed="0.00" departDelay="0.47" arrival="143.00" arrivalLane="226276377#0_1" arrivalPos="135.52" arrivalSpeed="13.95" duration="79.00" routeLength="784.51" waitingTime="13.00" waitingCount="1" stopTime="0.00" timeLoss="23.59" rerouteNo="0" devices="tripinfo_30" vType="DEFAULT_VEHTYPE" speedFactor="1.04" vaporized=""/>
    <tripinfo id="29" depart="63.00" departLane="-226276377#1_0" departPos="5.10" departSpeed="0.00" departDelay="1.59" arrival="144.00" arrivalLane="210831347#0_1" arrivalPos="149.88" arrivalSpeed="13.02" duration="81.00" routeLength="888.52" waitingTime="4.00" waitingCount="1" stopTime="0.00" timeLoss="19.91" rerouteNo="0" devices="tripinfo_29" vType="DEFAULT_VEHTYPE" speedFactor="1.00" vaporized=""/>
    <tripinfo id="50" depart="106.00" departLane="-218680176#1_0" departPos="5.10" departSpeed="0.00" departDelay="0.12" arrival="151.00" arrivalLane="231177697#0_0" arrivalPos="74.44" arrivalSpeed="13.12" duration="45.00" routeLength="205.97" waitingTime="15.00" waitingCount="1" stopTime="0.00" timeLoss="29.75" rerouteNo="0" devices="tripinfo_50" vType="DEFAULT_VEHTYPE" speedFactor="1.02" vaporized=""/>
    <tripinfo id="0" depart="0.00" departLane="65746828#0_0" departPos="5.10" departSpeed="0.00" departDelay="0.00" arrival="152.00" arrivalLane="-256961141#1_1" arrivalPos="204.72" arrivalSpeed="11.11" duration="152.00" routeLength="931.50" waitingTime="62.00" waitingCount="2" stopTime="0.00" timeLoss="77.03" rerouteNo="0" devices="tripinfo_0" vType="DEFAULT_VEHTYPE" speedFactor="0.84" vaporized=""/>
    <tripinfo id="1" depart="3.00" departLane="-231177697#2_0" departPos="5.10" departSpeed="0.00" departDelay="0.88" arrival="153.00" arrivalLane="210831345#1_1" arrivalPos="264.29" arrivalSpeed="13.09" duration="150.00" routeLength="696.92" waitingTime="83.00" waitingCount="2" stopTime="0.00" timeLoss="99.36" rerouteNo="0" devices="tripinfo_1" vType="DEFAULT_VEHTYPE" speedFactor="1.02" vaporized=""/>
    <tripinfo id="20" depart="43.00" departLane="666135205#0_0" departPos="5.10" departSpeed="0.00" departDelay="0.65" arrival="153.00" arrivalLane="-256961141#1_0" arrivalPos="204.72" arrivalSpeed="14.09" duration="110.00" routeLength="1068.72" waitingTime="22.00" waitingCount="2" stopTime="0.00" timeLoss="40.72" rerouteNo="0" devices="tripinfo_20" vType="DEFAULT_VEHTYPE" speedFactor="1.04" vaporized=""/>
    <tripinfo id="12" depart="26.00" departLane="E8_0" departPos="5.10" departSpeed="0.00" departDelay="0.59" arrival="155.00" arrivalLane="210831347#0_1" arrivalPos="149.88" arrivalSpeed="13.79" duration="129.00" routeLength="1367.17" waitingTime="27.00" waitingCount="1" stopTime="0.00" timeLoss="39.78" rerouteNo="0" devices="tripinfo_12" vType="DEFAULT_VEHTYPE" speedFactor="1.07" vaporized=""/>
    <tripinfo id="21" depart="45.00" departLane="-231177697#2_0" departPos="5.10" departSpeed="0.00" departDelay="0.53" arrival="156.00" arrivalLane="210831345#1_0" arrivalPos="264.29" arrivalSpeed="12.77" duration="111.00" routeLength="696.92" waitingTime="40.00" waitingCount="2" stopTime="0.00" timeLoss="55.69" rerouteNo="0" devices="tripinfo_21" vType="DEFAULT_VEHTYPE" speedFactor="0.92" vaporized=""/>
    <tripinfo id="33" depart="70.00" departLane="-231177697#2_0" departPos="5.10" departSpeed="0.00" departDelay="0.12" arrival="158.00" arrivalLane="-256961141#1_1" arrivalPos="204.72" arrivalSpeed="15.03" duration="88.00" routeLength="1204.36" waitingTime="1.00" waitingCount="1" stopTime="0.00" timeLoss="15.35" rerouteNo="0" devices="tripinfo_33" vType="DEFAULT_VEHTYPE" speedFactor="1.13" vaporized=""/>
    <tripinfo id="34" depart="72.00" departLane="-231177697#2_0" departPos="5.10" departSpeed="0.00" departDelay="0.00" arrival="158.00" arrivalLane="210831345#1_1" arrivalPos="264.29" arrivalSpeed="13.10" duration="86.00" routeLength="696.92" waitingTime="15.00" waitingCount="1" stopTime="0.00" timeLoss="33.60" rerouteNo="0" devices="tripinfo_34" vType="DEFAULT_VEHTYPE" speedFactor="0.98" vaporized=""/>
    <tripinfo id="39" depart="83.00" departLane="-231177697#2_0" departPos="5.10" departSpeed="0.00" departDelay="0.41" arrival="160.00" arrivalLane="210831345#1_1" arrivalPos="264.29" arrivalSpeed="13.09" duration="77.00" routeLength="696.92" waitingTime="12.00" waitingCount="1" stopTime="0.00" timeLoss="26.73" rerouteNo="0" devices="tripinfo_39" vType="DEFAULT_VEHTYPE" speedFactor="1.02" vaporized=""/>
    <tripinfo id="36" depart="77.00" departLane="978867529_0" departPos="5.10" departSpeed="0.00" departDelay="0.76" arrival="162.00" arrivalLane="210831345#1_1" arrivalPos="264.29" arrivalSpeed="12.84" duration="85.00" routeLength="951.92" waitingTime="0.00" waitingCount="0" stopTime="0.00" timeLoss="18.33" rerouteNo="0" devices="tripinfo_36" vType="DEFAULT_VEHTYPE" speedFactor="0.99" vaporized=""/>
    <tripinfo id="17" depart="36.00" departLane="-661251539_0" departPos="5.10" departSpeed="0.00" departDelay="0.00" arrival="164.00" arrivalLane="218680176#0_1" arrivalPos="98.94" arrivalSpeed="15.27" duration="128.00" routeLength="1001.21" waitingTime="45.00" waitingCount="2" stopTime="0.00" timeLoss="65.83" rerouteNo="0" devices="tripinfo_17" vType="DEFAULT_VEHTYPE" speedFactor="1.18" vaporized=""/>
    <tripinfo id="32" depart="68.00" departLane="978867529_0" departPos="5.10" departSpeed="0.00" departDelay="0.24" arrival="164.00" arrivalLane="231177697#0_1" arrivalPos="74.44" arrivalSpeed="11.04" duration="96.00" routeLength="437.06" waitingTime="53.00" waitingCount="1" stopTime="0.00" timeLoss="61.21" rerouteNo="0" devices="tripinfo_32" vType="DEFAULT_VEHTYPE" speedFactor="0.82" vaporized=""/>
    <tripinfo id="5" depart="11.00" departLane="-226276377#1_0" departPos="5.10" departSpeed="0.00" departDelay="0.41" arrival="168.00" arrivalLane="218680176#0_1" arrivalPos="98.94" arrivalSpeed="13.34" duration="157.00" routeLength="1158.55" waitingTime="51.00" waitingCount="3" stopTime="0.00" timeLoss="74.76" rerouteNo="0" devices="tripinfo_5" vType="DEFAULT_VEHTYPE" speedFactor="0.99" vaporized=""/>
    <tripinfo id="46" depart="98.00" departLane="978867529_0" departPos="5.10" departSpeed="0.00" departDelay="0.59" arrival="169.00" arrivalLane="210831347#0_0" arrivalPos="149.88" arrivalSpeed="14.42" duration="71.00" routeLength="812.56" waitingTime="6.00" waitingCount="1" stopTime="0.00" timeLoss="19.11" rerouteNo="0" devices="tripinfo_46" vType="DEFAULT_VEHTYPE" speedFactor="1.08" vaporized=""/>
    <tripinfo id="40" depart="85.00" departLane="65746828#0_0" departPos="5.10" departSpeed="0.00" departDelay="0.29" arrival="176.00" arrivalLane="210831345#1_0" arrivalPos="264.29" arrivalSpeed="11.44" duration="91.00" routeLength="446.75" waitingTime="46.00" waitingCount="1" stopTime="0.00" timeLoss="54.74" rerouteNo="0" devices="tripinfo_40" vType="DEFAULT_VEHTYPE" speedFactor="0.90" vaporized=""/>
    <tripinfo id="51" depart="108.00" departLane="666135205#0_0" departPos="5.10" departSpeed="0.00" departDelay="0.00" arrival="182.00" arrivalLane="218680176#0_1" arrivalPos="98.94" arrivalSpeed="13.60" duration="74.00" routeLength="693.09" waitingTime="16.00" waitingCount="1" stopTime="0.00" timeLoss="25.79" rerouteNo="0" devices="tripinfo_51" vType="DEFAULT_VEHTYPE" speedFactor="1.07" vaporized=""/>
    <tripinfo id="68" depart="144.00" departLane="-218680176#1_0" departPos="5.10" departSpeed="0.00" departDelay="0.00" arrival="184.00" arrivalLane="231177697#0_0" arrivalPos="74.44" arrivalSpeed="13.80" duration="40.00" routeLength="205.97" waitingTime="17.00" waitingCount="1" stopTime="0.00" timeLoss="24.44" rerouteNo="0" devices="tripinfo_68" vType="DEFAULT_VEHTYPE" speedFactor="1.01" vaporized=""/>
    <tripinfo id="47" depart="100.00" departLane="-218680176#1_0" departPos="5.10" departSpeed="0.00" departDelay="0.47" arrival="185.00" arrivalLane="210831347#0_0" arrivalPos="149.88" arrivalSpeed="11.50" duration="85.00" routeLength="560.58" waitingTime="19.00" waitingCount="1" stopTime="0.00" timeLoss="35.09" rerouteNo="0" devices="tripinfo_47" vType="DEFAULT_VEHTYPE" speedFactor="0.85" vaporized=""/>
    <tripinfo id="35" depart="75.00" departLane="-226276377#1_0" departPos="5.10" departSpeed="0.00" departDelay="0.88" arrival="188.00" arrivalLane="450554042#0_0" arrivalPos="622.66" arrivalSpeed="16.75" duration="113.00" routeLength="763.53" waitingTime="56.00" waitingCount="1" stopTime="0.00" timeLoss="67.45" rerouteNo="0" devices="tripinfo_35" vType="DEFAULT_VEHTYPE" speedFactor="1.06" vaporized=""/>
    <tripinfo id="22" depart="47.00" departLane="-218680176#1_0" departPos="5.10" departSpeed="0.00" departDelay="0.41" arrival="204.00" arrivalLane="210831345#1_1" arrivalPos="264.29" arrivalSpeed="12.22" duration="157.00" routeLength="699.94" waitingTime="85.00" waitingCount="3" stopTime="0.00" timeLoss="102.72" rerouteNo="0" devices="tripinfo_22" vType="DEFAULT_VEHTYPE" speedFactor="0.95" vaporized=""/>
    <tripinfo id="23" depart="50.00" departLane="-218680176#1_0" departPos="5.10" departSpeed="0.00" departDelay="1.29" arrival="204.00" arrivalLane="210831345#1_0" arrivalPos="264.29" arrivalSpeed="16.13" duration="154.00" routeLength="699.94" waitingTime="81.00" waitingCount="3" stopTime="0.00" timeLoss="111.22" rerouteNo="0" devices="tripinfo_23" vType="DEFAULT_VEHTYPE" speedFactor="1.22" vaporized=""/>
    <tripinfo id="62" depart="132.00" departLane="-218680176#1_0" departPos="5.10" departSpeed="0.00" departDelay="0.71" arrival="206.00" arrivalLane="210831345#1_1" arrivalPos="264.29" arrivalSpeed="14.71" duration="74.00" routeLength="699.94" waitingTime="12.00" waitingCount="1" stopTime="0.00" timeLoss="25.77" rerouteNo="0" devices="tripinfo_62" vType="DEFAULT_VEHTYPE" speedFactor="1.07" vaporized=""/>
    <tripinfo id="49" depart="105.00" departLane="E8_0" departPos="5.10" departSpeed="0.00" departDelay="1.24" arrival="209.00" arrivalLane="39907424_0" arrivalPos="316.44" arrivalSpeed="15.33" duration="104.00" routeLength="1303.68" waitingTime="6.00" waitingCount="1" stopTime="0.00" timeLoss="22.05" rerouteNo="0" devices="tripinfo_49" vType="DEFAULT_VEHTYPE" speedFactor="1.11" vaporized=""/>
    <tripinfo id="61" depart="130.00" departLane="978867529_0" departPos="5.10" departSpeed="0.00" departDelay="0.82" arrival="214.00" arrivalLane="218680176#0_0" arrivalPos="98.94" arrivalSpeed="12.72" duration="84.00" routeLength="442.15" waitingTime="45.00" waitingCount="1" stopTime="0.00" timeLoss="53.50" rerouteNo="0" devices="tripinfo_61" vType="DEFAULT_VEHTYPE" speedFactor="0.97" vaporized=""/>
    <tripinfo id="28" depart="60.00" departLane="-226276377#1_0" departPos="5.10" departSpeed="0.00" departDelay="0.71" arrival="215.00" arrivalLane="231177697#0_0" arrivalPos="74.44" arrivalSpeed="13.19" duration="155.00" routeLength="1114.63" waitingTime="58.00" waitingCount="2" stopTime="0.00" timeLoss="76.06" rerouteNo="0" devices="tripinfo_28" vType="DEFAULT_VEHTYPE" speedFactor="0.99" vaporized=""/>
    <tripinfo id="54" depart="115.00" departLane="256961141#0_0" departPos="5.10" departSpeed="0.00" departDelay="0.65" arrival="220.00" arrivalLane="450554042#0_1" arrivalPos="622.66" arrivalSpeed="16.31" duration="105.00" routeLength="853.74" waitingTime="43.00" waitingCount="1" stopTime="0.00" timeLoss="52.84" rerouteNo="0" devices="tripinfo_54" vType="DEFAULT_VEHTYPE" speedFactor="1.05" vaporized=""/>
    <tripinfo id="26" depart="56.00" departLane="-231177697#2_0" departPos="5.10" departSpeed="0.00" departDelay="0.94" arrival="227.00" arrivalLane="450554042#0_0" arrivalPos="622.66" arrivalSpeed="11.12" duration="171.00" routeLength="1613.58" waitingTime="12.00" waitingCount="1" stopTime="0.00" timeLoss="26.56" rerouteNo="0" devices="tripinfo_26" vType="DEFAULT_VEHTYPE" speedFactor="0.71" vaporized=""/>
    <tripinfo id="42" depart="89.00" departLane="-661251539_0" departPos="5.10" departSpeed="0.00" departDelay="0.06" arrival="227.00" arrivalLane="153964138#0_1" arrivalPos="337.99" arrivalSpeed="17.88" duration="138.00" routeLength="1239.04" waitingTime="37.00" waitingCount="2" stopTime="0.00" timeLoss="61.34" rerouteNo="0" devices="tripinfo_42" vType="DEFAULT_VEHTYPE" speedFactor="1.12" vaporized=""/>
    <tripinfo id="9" depart="20.00" departLane="978867529_0" departPos="5.10" departSpeed="0.00" departDelay="0.94" arrival="229.00" arrivalLane="-256961141#1_1" arrivalPos="204.72" arrivalSpeed="14.90" duration="209.00" routeLength="1459.36" waitingTime="84.00" waitingCount="3" stopTime="0.00" timeLoss="121.31" rerouteNo="0" devices="tripinfo_9" vType="DEFAULT_VEHTYPE" speedFactor="1.09" vaporized=""/>
    <tripinfo id="13" depart="28.00" departLane="-218680176#1_0" departPos="5.10" departSpeed="0.00" departDelay="0.47" arrival="229.00" arrivalLane="-256961141#1_0" arrivalPos="204.72" arrivalSpeed="9.42" duration="201.00" routeLength="1207.38" waitingTime="76.00" waitingCount="2" stopTime="0.00" timeLoss="93.22" rerouteNo="0" devices="tripinfo_13" vType="DEFAULT_VEHTYPE" speedFactor="0.76" vaporized=""/>
    <tripinfo id="25" depart="53.00" departLane="-661251539_0" departPos="5.10" departSpeed="0.00" departDelay="0.06" arrival="229.00" arrivalLane="153964138#0_0" arrivalPos="337.99" arrivalSpeed="16.28" duration="176.00" routeLength="1239.04" waitingTime="69.00" waitingCount="2" stopTime="0.00" timeLoss="88.91" rerouteNo="0" devices="tripinfo_25" vType="DEFAULT_VEHTYPE" speedFactor="0.99" vaporized=""/>
    <tripinfo id="44" depart="94.00" departLane="-218680176#1_0" departPos="5.10" departSpeed="0.00" departDelay="0.82" arrival="230.00" arrivalLane="-256961141#1_0" arrivalPos="204.72" arrivalSpeed="11.62" duration="136.00" routeLength="1207.38" waitingTime="31.00" waitingCount="2" stopTime="0.00" timeLoss="53.25" rerouteNo="0" devices="tripinfo_44" vType="DEFAULT_VEHTYPE" speedFactor="0.99" vaporized=""/>
    <tripinfo id="11" depart="24.00" departLane="-661251539_0" departPos="5.10" departSpeed="0.00" departDelay="0.71" arrival="231.00" arrivalLane="153964138#0_0" arrivalPos="337.99" arrivalSpeed="14.26" duration="207.00" routeLength="1239.04" waitingTime="92.00" waitingCount="2" stopTime="0.00" timeLoss="111.06" rerouteNo="0" devices="tripinfo_11" vType="DEFAULT_VEHTYPE" speedFactor="0.89" vaporized=""/>
    <tripinfo id="75" depart="159.00" departLane="E8_0" departPos="5.10" departSpeed="0.00" departDelay="0.18" arrival="231.00" arrivalLane="226276377#0_1" arrivalPos="135.52" arrivalSpeed="10.98" duration="72.00" routeLength="784.51" waitingTime="0.00" waitingCount="0" stopTime="0.00" timeLoss="6.39" rerouteNo="0" devices="tripinfo_75" vType="DEFAULT_VEHTYPE" speedFactor="0.87" vaporized=""/>
    <tripinfo id="45" depart="97.00" departLane="-218680176#1_0" departPos="5.10" departSpeed="0.00" departDelay="1.71" arrival="240.00" arrivalLane="226276377#0_0" arrivalPos="135.52" arrivalSpeed="17.09" duration="143.00" routeLength="1117.57" waitingTime="54.00" waitingCount="2" stopTime="0.00" timeLoss="82.64" rerouteNo="0" devices="tripinfo_45" vType="DEFAULT_VEHTYPE" speedFactor="1.25" vaporized=""/>
    <tripinfo id="19" depart="42.00" departLane="978867529_0" departPos="5.10" departSpeed="0.00" departDelay="1.76" arrival="246.00" arrivalLane="226276377#0_0" arrivalPos="135.52" arrivalSpeed="11.01" duration="204.00" routeLength="1369.55" waitingTime="77.00" waitingCount="3" stopTime="0.00" timeLoss="99.46" rerouteNo="0" devices="tripinfo_19" vType="DEFAULT_VEHTYPE" speedFactor="0.86" vaporized=""/>
    <tripinfo id="74" depart="157.00" departLane="-226276377#1_0" departPos="5.10" departSpeed="0.00" departDelay="0.29" arrival="247.00" arrivalLane="210831345#1_0" arrivalPos="264.29" arrivalSpeed="13.16" duration="90.00" routeLength="977.93" waitingTime="6.00" waitingCount="1" stopTime="0.00" timeLoss="20.16" rerouteNo="0" devices="tripinfo_74" vType="DEFAULT_VEHTYPE" speedFactor="0.98" vaporized=""/>
    <tripinfo id="71" depart="151.00" departLane="-231177697#2_0" departPos="5.10" departSpeed="0.00" departDelay="0.65" arrival="249.00" arrivalLane="39907424_0" arrivalPos="316.44" arrivalSpeed="14.40" duration="98.00" routeLength="961.15" waitingTime="21.00" waitingCount="1" stopTime="0.00" timeLoss="35.34" rerouteNo="0" devices="tripinfo_71" vType="DEFAULT_VEHTYPE" speedFactor="1.09" vaporized=""/>
    <tripinfo id="14" depart="30.00" departLane="978867529_0" departPos="5.10" departSpeed="0.00" departDelay="0.35" arrival="251.00" arrivalLane="226276377#0_0" arrivalPos="135.52" arrivalSpeed="10.04" duration="221.00" routeLength="1369.55" waitingTime="77.00" waitingCount="3" stopTime="0.00" timeLoss="102.58" rerouteNo="0" devices="tripinfo_14" vType="DEFAULT_VEHTYPE" speedFactor="0.76" vaporized=""/>
    <tripinfo id="18" depart="39.00" departLane="978867529_0" departPos="5.10" departSpeed="0.00" departDelay="0.88" arrival="253.00" arrivalLane="226276377#0_0" arrivalPos="135.52" arrivalSpeed="11.38" duration="214.00" routeLength="1369.55" waitingTime="74.00" waitingCount="3" stopTime="0.00" timeLoss="112.37" rerouteNo="0" devices="tripinfo_18" vType="DEFAULT_VEHTYPE" speedFactor="0.89" vaporized=""/>
    <tripinfo id="79" depart="168.00" departLane="-231177697#2_0" departPos="5.10" departSpeed="0.00" departDelay="0.71" arrival="254.00" arrivalLane="153964138#0_0" arrivalPos="337.99" arrivalSpeed="16.64" duration="86.00" routeLength="417.38" waitingTime="49.00" waitingCount="1" stopTime="0.00" timeLoss="58.79" rerouteNo="0" devices="tripinfo_79" vType="DEFAULT_VEHTYPE" speedFactor="1.00" vaporized=""/>
    <tripinfo id="78" depart="166.00" departLane="-661251539_0" departPos="5.10" departSpeed="0.00" departDelay="0.82" arrival="255.00" arrivalLane="226276377#0_0" arrivalPos="135.52" arrivalSpeed="11.45" duration="89.00" routeLength="783.10" waitingTime="10.00" waitingCount="1" stopTime="0.00" timeLoss="28.04" rerouteNo="0" devices="tripinfo_78" vType="DEFAULT_VEHTYPE" speedFactor="0.90" vaporized=""/>
    <tripinfo id="52" depart="111.00" departLane="-231177697#2_0" departPos="5.10" departSpeed="0.00" departDelay="0.88" arrival="256.00" arrivalLane="226276377#0_0" arrivalPos="135.52" arrivalSpeed="13.70" duration="145.00" routeLength="1114.55" waitingTime="55.00" waitingCount="1" stopTime="0.00" timeLoss="70.46" rerouteNo="0" devices="tripinfo_52" vType="DEFAULT_VEHTYPE" speedFactor="1.01" vaporized=""/>
    <tripinfo id="58" depart="123.00" departLane="-231177697#2_0" departPos="5.10" departSpeed="0.00" departDelay="0.18" arrival="260.00" arrivalLane="226276377#0_0" arrivalPos="135.52" arrivalSpeed="13.03" duration="137.00" routeLength="1114.55" waitingTime="44.00" waitingCount="1" stopTime="0.00" timeLoss="59.02" rerouteNo="0" devices="tripinfo_58" vType="DEFAULT_VEHTYPE" speedFactor="0.97" vaporized=""/>
    <tripinfo id="60" depart="128.00" departLane="666135205#0_0" departPos="5.10" departSpeed="0.00" departDelay="0.94" arrival="264.00" arrivalLane="218680176#0_1" arrivalPos="98.94" arrivalSpeed="15.28" duration="136.00" routeLength="693.09" waitingTime="73.00" waitingCount="2" stopTime="0.00" timeLoss="90.60" rerouteNo="0" devices="tripinfo_60" vType="DEFAULT_VEHTYPE" speedFactor="1.12" vaporized=""/>
    <tripinfo id="38" depart="81.00" departLane="E8_0" departPos="5.10" departSpeed="0.00" departDelay="0.53" arrival="266.00" arrivalLane="218680176#0_1" arrivalPos="98.94" arrivalSpeed="15.60" duration="185.00" routeLength="1637.20" waitingTime="53.00" waitingCount="3" stopTime="0.00" timeLoss="83.04" rerouteNo="0" devices="tripinfo_38" vType="DEFAULT_VEHTYPE" speedFactor="1.13" vaporized=""/>
    <tripinfo id="63" depart="135.00" departLane="-218680176#1_0" departPos="5.10" departSpeed="0.00" departDelay="1.59" arrival="267.00" arrivalLane="450554042#0_0" arrivalPos="622.66" arrivalSpeed="17.74" duration="132.00" routeLength="1616.60" waitingTime="22.00" waitingCount="1" stopTime="0.00" timeLoss="39.87" rerouteNo="0" devices="tripinfo_63" vType="DEFAULT_VEHTYPE" speedFactor="1.12" vaporized=""/>
    <tripinfo id="43" depart="92.00" departLane="E8_0" departPos="5.10" departSpeed="0.00" departDelay="0.94" arrival="269.00" arrivalLane="218680176#0_1" arrivalPos="98.94" arrivalSpeed="13.58" duration="177.00" routeLength="1637.20" waitingTime="38.00" waitingCount="3" stopTime="0.00" timeLoss="64.34" rerouteNo="0" devices="tripinfo_43" vType="DEFAULT_VEHTYPE" speedFactor="1.02" vaporized=""/>
    <tripinfo id="91" depart="193.00" departLane="E8_0" departPos="5.10" departSpeed="0.00" departDelay="0.29" arrival="270.00" arrivalLane="-256961141#1_0" arrivalPos="204.72" arrivalSpeed="12.35" duration="77.00" routeLength="832.89" waitingTime="0.00" waitingCount="0" stopTime="0.00" timeLoss="8.09" rerouteNo="0" devices="tripinfo_91" vType="DEFAULT_VEHTYPE" speedFactor="0.89" vaporized=""/>
    <tripinfo id="48" depart="102.00" departLane="E8_0" departPos="5.10" departSpeed="0.00" departDelay="0.35" arrival="271.00" arrivalLane="218680176#0_1" arrivalPos="98.94" arrivalSpeed="12.47" duration="169.00" routeLength="1637.20" waitingTime="24.00" waitingCount="2" stopTime="0.00" timeLoss="52.68" rerouteNo="0" devices="tripinfo_48" vType="DEFAULT_VEHTYPE" speedFactor="0.98" vaporized=""/>
    <tripinfo id="41" depart="88.00" departLane="65746828#0_0" departPos="5.10" departSpeed="0.00" departDelay="1.18" arrival="274.00" arrivalLane="450554042#0_0" arrivalPos="622.66" arrivalSpeed="16.89" duration="186.00" routeLength="1340.72" waitingTime="88.00" waitingCount="2" stopTime="0.00" timeLoss="105.24" rerouteNo="0" devices="tripinfo_41" vType="DEFAULT_VEHTYPE" speedFactor="1.04" vaporized=""/>
    <tripinfo id="76" depart="161.00" departLane="-661251539_0" departPos="5.10" departSpeed="0.00" departDelay="0.06" arrival="274.00" arrivalLane="218680176#0_1" arrivalPos="98.94" arrivalSpeed="12.44" duration="113.00" routeLength="1001.21" waitingTime="17.00" waitingCount="1" stopTime="0.00" timeLoss="31.16" rerouteNo="0" devices="tripinfo_76" vType="DEFAULT_VEHTYPE" speedFactor="0.90" vaporized=""/>
    <tripinfo id="77" depart="164.00" departLane="-226276377#1_0" departPos="5.10" departSpeed="0.00" departDelay="0.94" arrival="278.00" arrivalLane="210831345#1_0" arrivalPos="264.29" arrivalSpeed="12.52" duration="114.00" routeLength="977.93" waitingTime="23.00" waitingCount="1" stopTime="0.00" timeLoss="40.41" rerouteNo="0" devices="tripinfo_77" vType="DEFAULT_VEHTYPE" speedFactor="0.92" vaporized=""/>
    <tripinfo id="95" depart="202.00" departLane="-661251539_0" departPos="5.10" departSpeed="0.00" departDelay="0.82" arrival="278.00" arrivalLane="210831345#1_1" arrivalPos="264.29" arrivalSpeed="13.89" duration="76.00" routeLength="826.64" waitingTime="1.00" waitingCount="1" stopTime="0.00" timeLoss="19.07" rerouteNo="0" devices="tripinfo_95" vType="DEFAULT_VEHTYPE" speedFactor="1.06" vaporized=""/>
    <tripinfo id="88" depart="187.00" departLane="-218680176#1_0" departPos="5.10" departSpeed="0.00" departDelay="0.65" arrival="279.00" arrivalLane="210831347#0_0" arrivalPos="149.88" arrivalSpeed="11.00" duration="92.00" routeLength="560.58" waitingTime="28.00" waitingCount="1" stopTime="0.00" timeLoss="41.01" rerouteNo="0" devices="tripinfo_88" vType="DEFAULT_VEHTYPE" speedFactor="0.83" vaporized=""/>
    <tripinfo id="57" depart="121.00" departLane="E8_0" departPos="5.10" departSpeed="0.00" departDelay="0.29" arrival="283.00" arrivalLane="39907424_0" arrivalPos="316.44" arrivalSpeed="11.82" duration="162.00" routeLength="1303.68" waitingTime="51.00" waitingCount="1" stopTime="0.00" timeLoss="65.46" rerouteNo="0" devices="tripinfo_57" vType="DEFAULT_VEHTYPE" speedFactor="0.94" vaporized=""/>
    <tripinfo id="81" depart="172.00" departLane="-231177697#2_0" departPos="5.10" departSpeed="0.00" departDelay="0.47" arrival="284.00" arrivalLane="450554042#0_0" arrivalPos="622.66" arrivalSpeed="17.11" duration="112.00" routeLength="1613.58" waitingTime="0.00" waitingCount="0" stopTime="0.00" timeLoss="15.20" rerouteNo="0" devices="tripinfo_81" vType="DEFAULT_VEHTYPE" speedFactor="1.07" vaporized=""/>