<?xml version="1.0" encoding="UTF-8"?>

<!-- generated on 2024-09-02 16:09:10 by Eclipse SUMO sumo Version 1.20.0
<configuration xmlns:xsi="http://www.w3.org/2001/XMLSchema-instance" xsi:noNamespaceSchemaLocation="http://sumo.dlr.de/xsd/sumoConfiguration.xsd">

    <input>
        <net-file value="c:\self\School\Master\Disertation\code\RESCO\resco_benchmark\environments/unirii/osm.net.xml.gz"/>
        <route-files value="c:\self\School\Master\Disertation\code\RESCO\resco_benchmark\environments/unirii/osm.passenger.trips.xml"/>
        <additional-files value="c:\self\School\Master\Disertation\code\RESCO\resco_benchmark\environments/unirii/osm.poly.xml.gz"/>
    </input>

    <output>
        <tripinfo-output value="C:\self\School\Master\Disertation\code\RESCO\results\IDQN-tr0-unirii-0-drq-wait\tripinfo_89.xml"/>
        <tripinfo-output.write-unfinished value="true"/>
    </output>

    <processing>
        <ignore-route-errors value="true"/>
        <time-to-teleport value="-1"/>
    </processing>

    <routing>
        <device.rerouting.adaptation-steps value="18"/>
        <device.rerouting.adaptation-interval value="10"/>
    </routing>

    <report>
        <verbose value="true"/>
        <no-warnings value="True"/>
        <duration-log.statistics value="true"/>
        <no-step-log value="True"/>
    </report>

    <traci_server>
        <remote-port value="63687"/>
    </traci_server>

    <random_number>
        <random value="true"/>
    </random_number>

    <gui_only>
        <gui-settings-file value="c:\self\School\Master\Disertation\code\RESCO\resco_benchmark\environments/unirii/osm.view.xml"/>
    </gui_only>

</configuration>
-->

<tripinfos xmlns:xsi="http://www.w3.org/2001/XMLSchema-instance" xsi:noNamespaceSchemaLocation="http://sumo.dlr.de/xsd/tripinfo_file.xsd">
    <tripinfo id="6" depart="13.00" departLane="-218680176#1_0" departPos="5.10" departSpeed="0.00" departDelay="0.29" arrival="77.00" arrivalLane="153964138#0_2" arrivalPos="337.99" arrivalSpeed="18.35" duration="64.00" routeLength="462.27" waitingTime="28.00" waitingCount="1" stopTime="0.00" timeLoss="36.88" rerouteNo="0" devices="tripinfo_6" vType="DEFAULT_VEHTYPE" speedFactor="1.11" vaporized=""/>
    <tripinfo id="16" depart="34.00" departLane="256961141#0_0" departPos="5.10" departSpeed="0.00" departDelay="0.12" arrival="96.00" arrivalLane="450554042#0_0" arrivalPos="622.66" arrivalSpeed="16.08" duration="62.00" routeLength="853.74" waitingTime="0.00" waitingCount="0" stopTime="0.00" timeLoss="5.82" rerouteNo="0" devices="tripinfo_16" vType="DEFAULT_VEHTYPE" speedFactor="0.98" vaporized=""/>
    <tripinfo id="2" depart="5.00" departLane="666135205#0_0" departPos="5.10" departSpeed="0.00" departDelay="0.76" arrival="105.00" arrivalLane="231177697#0_0" arrivalPos="74.44" arrivalSpeed="14.08" duration="100.00" routeLength="649.17" waitingTime="44.00" waitingCount="1" stopTime="0.00" timeLoss="54.90" rerouteNo="0" devices="tripinfo_2" vType="DEFAULT_VEHTYPE" speedFactor="1.08" vaporized=""/>
    <tripinfo id="0" depart="0.00" departLane="65746828#0_0" departPos="5.10" departSpeed="0.00" departDelay="0.00" arrival="124.00" arrivalLane="-256961141#1_1" arrivalPos="204.72" arrivalSpeed="12.95" duration="124.00" routeLength="931.50" waitingTime="42.00" waitingCount="2" stopTime="0.00" timeLoss="58.33" rerouteNo="0" devices="tripinfo_0" vType="DEFAULT_VEHTYPE" speedFactor="0.95" vaporized=""/>
    <tripinfo id="4" depart="9.00" departLane="-661251539_0" departPos="5.10" departSpeed="0.00" departDelay="0.53" arrival="127.00" arrivalLane="-256961141#1_1" arrivalPos="204.72" arrivalSpeed="12.07" duration="118.00" routeLength="872.91" waitingTime="37.00" waitingCount="1" stopTime="0.00" timeLoss="51.25" rerouteNo="0" devices="tripinfo_4" vType="DEFAULT_VEHTYPE" speedFactor="0.91" vaporized=""/>
    <tripinfo id="50" depart="106.00" departLane="-218680176#1_0" departPos="5.10" departSpeed="0.00" departDelay="0.12" arrival="128.00" arrivalLane="231177697#0_0" arrivalPos="74.44" arrivalSpeed="14.44" duration="22.00" routeLength="205.97" waitingTime="0.00" waitingCount="0" stopTime="0.00" timeLoss="7.76" rerouteNo="0" devices="tripinfo_50" vType="DEFAULT_VEHTYPE" speedFactor="1.06" vaporized=""/>
    <tripinfo id="30" depart="64.00" departLane="E8_0" departPos="5.10" departSpeed="0.00" departDelay="0.47" arrival="129.00" arrivalLane="226276377#0_1" arrivalPos="135.52" arrivalSpeed="13.30" duration="65.00" routeLength="784.51" waitingTime="0.00" waitingCount="0" stopTime="0.00" timeLoss="6.20" rerouteNo="0" devices="tripinfo_30" vType="DEFAULT_VEHTYPE" speedFactor="0.98" vaporized=""/>
    <tripinfo id="20" depart="43.00" departLane="666135205#0_0" departPos="5.10" departSpeed="0.00" departDelay="0.65" arrival="136.00" arrivalLane="-256961141#1_1" arrivalPos="204.72" arrivalSpeed="13.12" duration="93.00" routeLength="1068.72" waitingTime="9.00" waitingCount="1" stopTime="0.00" timeLoss="20.48" rerouteNo="0" devices="tripinfo_20" vType="DEFAULT_VEHTYPE" speedFactor="0.99" vaporized=""/>
    <tripinfo id="10" depart="23.00" departLane="978867529_0" departPos="5.10" departSpeed="0.00" departDelay="1.82" arrival="138.00" arrivalLane="231177697#0_1" arrivalPos="74.44" arrivalSpeed="13.61" duration="115.00" routeLength="437.06" waitingTime="78.00" waitingCount="1" stopTime="0.00" timeLoss="87.76" rerouteNo="0" devices="tripinfo_10" vType="DEFAULT_VEHTYPE" speedFactor="1.06" vaporized=""/>
    <tripinfo id="15" depart="33.00" departLane="978867529_0" departPos="5.10" departSpeed="0.00" departDelay="1.24" arrival="140.00" arrivalLane="231177697#0_1" arrivalPos="74.44" arrivalSpeed="13.65" duration="107.00" routeLength="437.06" waitingTime="67.00" waitingCount="1" stopTime="0.00" timeLoss="79.76" rerouteNo="0" devices="tripinfo_15" vType="DEFAULT_VEHTYPE" speedFactor="1.05" vaporized=""/>
    <tripinfo id="7" depart="15.00" departLane="65746828#0_0" departPos="5.10" departSpeed="0.00" departDelay="0.18" arrival="141.00" arrivalLane="218680176#0_1" arrivalPos="98.94" arrivalSpeed="13.53" duration="126.00" routeLength="602.71" waitingTime="71.00" waitingCount="1" stopTime="0.00" timeLoss="82.60" rerouteNo="0" devices="tripinfo_7" vType="DEFAULT_VEHTYPE" speedFactor="1.04" vaporized=""/>
    <tripinfo id="27" depart="58.00" departLane="65746828#0_0" departPos="5.10" departSpeed="0.00" departDelay="0.82" arrival="142.00" arrivalLane="226276377#0_0" arrivalPos="135.52" arrivalSpeed="13.22" duration="84.00" routeLength="841.69" waitingTime="12.00" waitingCount="1" stopTime="0.00" timeLoss="25.72" rerouteNo="0" devices="tripinfo_27" vType="DEFAULT_VEHTYPE" speedFactor="0.96" vaporized=""/>
    <tripinfo id="32" depart="68.00" departLane="978867529_0" departPos="5.10" departSpeed="0.00" departDelay="0.24" arrival="142.00" arrivalLane="231177697#0_1" arrivalPos="74.44" arrivalSpeed="13.66" duration="74.00" routeLength="437.06" waitingTime="36.00" waitingCount="1" stopTime="0.00" timeLoss="46.77" rerouteNo="0" devices="tripinfo_32" vType="DEFAULT_VEHTYPE" speedFactor="1.06" vaporized=""/>
    <tripinfo id="5" depart="11.00" departLane="-226276377#1_0" departPos="5.10" departSpeed="0.00" departDelay="0.41" arrival="143.00" arrivalLane="218680176#0_1" arrivalPos="98.94" arrivalSpeed="12.78" duration="132.00" routeLength="1158.55" waitingTime="31.00" waitingCount="2" stopTime="0.00" timeLoss="48.48" rerouteNo="0" devices="tripinfo_5" vType="DEFAULT_VEHTYPE" speedFactor="0.96" vaporized=""/>
    <tripinfo id="3" depart="7.00" departLane="E8_0" departPos="5.10" departSpeed="0.00" departDelay="0.65" arrival="145.00" arrivalLane="-256961141#1_0" arrivalPos="204.72" arrivalSpeed="14.54" duration="138.00" routeLength="832.89" waitingTime="73.00" waitingCount="1" stopTime="0.00" timeLoss="82.65" rerouteNo="0" devices="tripinfo_3" vType="DEFAULT_VEHTYPE" speedFactor="1.10" vaporized=""/>
    <tripinfo id="17" depart="36.00" departLane="-661251539_0" departPos="5.10" departSpeed="0.00" departDelay="0.00" arrival="145.00" arrivalLane="218680176#0_1" arrivalPos="98.94" arrivalSpeed="12.83" duration="109.00" routeLength="1001.21" waitingTime="16.00" waitingCount="1" stopTime="0.00" timeLoss="35.14" rerouteNo="0" devices="tripinfo_17" vType="DEFAULT_VEHTYPE" speedFactor="1.00" vaporized=""/>
    <tripinfo id="18" depart="39.00" departLane="978867529_0" departPos="5.10" departSpeed="0.00" departDelay="0.88" arrival="152.00" arrivalLane="226276377#0_0" arrivalPos="135.52" arrivalSpeed="14.36" duration="113.00" routeLength="1369.55" waitingTime="11.00" waitingCount="1" stopTime="0.00" timeLoss="25.91" rerouteNo="0" devices="tripinfo_18" vType="DEFAULT_VEHTYPE" speedFactor="1.04" vaporized=""/>
    <tripinfo id="29" depart="63.00" departLane="-226276377#1_0" departPos="5.10" departSpeed="0.00" departDelay="1.59" arrival="153.00" arrivalLane="210831347#0_1" arrivalPos="149.88" arrivalSpeed="10.62" duration="90.00" routeLength="888.52" waitingTime="0.00" waitingCount="0" stopTime="0.00" timeLoss="10.70" rerouteNo="0" devices="tripinfo_29" vType="DEFAULT_VEHTYPE" speedFactor="0.78" vaporized=""/>
    <tripinfo id="1" depart="3.00" departLane="-231177697#2_0" departPos="5.10" departSpeed="0.00" departDelay="0.88" arrival="154.00" arrivalLane="210831345#1_1" arrivalPos="264.29" arrivalSpeed="11.80" duration="151.00" routeLength="696.92" waitingTime="81.00" waitingCount="2" stopTime="0.00" timeLoss="96.59" rerouteNo="0" devices="tripinfo_1" vType="DEFAULT_VEHTYPE" speedFactor="0.94" vaporized=""/>
    <tripinfo id="14" depart="30.00" departLane="978867529_0" departPos="5.10" departSpeed="0.00" departDelay="0.35" arrival="154.00" arrivalLane="226276377#0_0" arrivalPos="135.52" arrivalSpeed="13.93" duration="124.00" routeLength="1369.55" waitingTime="21.00" waitingCount="1" stopTime="0.00" timeLoss="39.68" rerouteNo="0" devices="tripinfo_14" vType="DEFAULT_VEHTYPE" speedFactor="1.07" vaporized=""/>
    <tripinfo id="21" depart="45.00" departLane="-231177697#2_0" departPos="5.10" departSpeed="0.00" departDelay="0.53" arrival="156.00" arrivalLane="210831345#1_1" arrivalPos="264.29" arrivalSpeed="14.02" duration="111.00" routeLength="696.92" waitingTime="42.00" waitingCount="1" stopTime="0.00" timeLoss="62.13" rerouteNo="0" devices="tripinfo_21" vType="DEFAULT_VEHTYPE" speedFactor="1.06" vaporized=""/>
    <tripinfo id="22" depart="47.00" departLane="-218680176#1_0" departPos="5.10" departSpeed="0.00" departDelay="0.41" arrival="161.00" arrivalLane="210831345#1_0" arrivalPos="264.29" arrivalSpeed="11.59" duration="114.00" routeLength="699.94" waitingTime="43.00" waitingCount="1" stopTime="0.00" timeLoss="55.40" rerouteNo="0" devices="tripinfo_22" vType="DEFAULT_VEHTYPE" speedFactor="0.89" vaporized=""/>
    <tripinfo id="19" depart="42.00" departLane="978867529_0" departPos="5.10" departSpeed="0.00" departDelay="1.76" arrival="162.00" arrivalLane="226276377#0_0" arrivalPos="135.52" arrivalSpeed="12.02" duration="120.00" routeLength="1369.55" waitingTime="6.00" waitingCount="1" stopTime="0.00" timeLoss="23.98" rerouteNo="0" devices="tripinfo_19" vType="DEFAULT_VEHTYPE" speedFactor="0.93" vaporized=""/>
    <tripinfo id="35" depart="75.00" departLane="-226276377#1_0" departPos="5.10" departSpeed="0.00" departDelay="0.88" arrival="162.00" arrivalLane="450554042#0_0" arrivalPos="622.66" arrivalSpeed="18.10" duration="87.00" routeLength="763.53" waitingTime="32.00" waitingCount="1" stopTime="0.00" timeLoss="43.01" rerouteNo="0" devices="tripinfo_35" vType="DEFAULT_VEHTYPE" speedFactor="1.11" vaporized=""/>
    <tripinfo id="23" depart="50.00" departLane="-218680176#1_0" departPos="5.10" departSpeed="0.00" departDelay="1.29" arrival="163.00" arrivalLane="210831345#1_0" arrivalPos="264.29" arrivalSpeed="11.19" duration="113.00" routeLength="699.94" waitingTime="42.00" waitingCount="1" stopTime="0.00" timeLoss="54.86" rerouteNo="0" devices="tripinfo_23" vType="DEFAULT_VEHTYPE" speedFactor="0.90" vaporized=""/>
    <tripinfo id="31" depart="66.00" departLane="65746828#0_0" departPos="5.10" departSpeed="0.00" departDelay="0.35" arrival="163.00" arrivalLane="231177697#0_0" arrivalPos="74.44" arrivalSpeed="11.70" duration="97.00" routeLength="558.79" waitingTime="40.00" waitingCount="1" stopTime="0.00" timeLoss="50.00" rerouteNo="0" devices="tripinfo_31" vType="DEFAULT_VEHTYPE" speedFactor="0.89" vaporized=""/>
    <tripinfo id="61" depart="130.00" departLane="978867529_0" departPos="5.10" departSpeed="0.00" departDelay="0.82" arrival="166.00" arrivalLane="218680176#0_0" arrivalPos="98.94" arrivalSpeed="14.11" duration="36.00" routeLength="442.15" waitingTime="0.00" waitingCount="0" stopTime="0.00" timeLoss="7.93" rerouteNo="0" devices="tripinfo_61" vType="DEFAULT_VEHTYPE" speedFactor="1.06" vaporized=""/>
    <tripinfo id="28" depart="60.00" departLane="-226276377#1_0" departPos="5.10" departSpeed="0.00" departDelay="0.71" arrival="167.00" arrivalLane="231177697#0_0" arrivalPos="74.44" arrivalSpeed="13.87" duration="107.00" routeLength="1114.63" waitingTime="13.00" waitingCount="2" stopTime="0.00" timeLoss="32.59" rerouteNo="0" devices="tripinfo_28" vType="DEFAULT_VEHTYPE" speedFactor="1.05" vaporized=""/>
    <tripinfo id="40" depart="85.00" departLane="65746828#0_0" departPos="5.10" departSpeed="0.00" departDelay="0.29" arrival="171.00" arrivalLane="210831345#1_0" arrivalPos="264.29" arrivalSpeed="15.12" duration="86.00" routeLength="446.75" waitingTime="47.00" waitingCount="1" stopTime="0.00" timeLoss="57.40" rerouteNo="0" devices="tripinfo_40" vType="DEFAULT_VEHTYPE" speedFactor="1.13" vaporized=""/>
    <tripinfo id="47" depart="100.00" departLane="-218680176#1_0" departPos="5.10" departSpeed="0.00" departDelay="0.47" arrival="171.00" arrivalLane="210831347#0_0" arrivalPos="149.88" arrivalSpeed="12.45" duration="71.00" routeLength="560.58" waitingTime="8.00" waitingCount="1" stopTime="0.00" timeLoss="26.03" rerouteNo="0" devices="tripinfo_47" vType="DEFAULT_VEHTYPE" speedFactor="0.94" vaporized=""/>
    <tripinfo id="25" depart="53.00" departLane="-661251539_0" departPos="5.10" departSpeed="0.00" departDelay="0.06" arrival="177.00" arrivalLane="153964138#0_0" arrivalPos="337.99" arrivalSpeed="17.77" duration="124.00" routeLength="1239.04" waitingTime="25.00" waitingCount="2" stopTime="0.00" timeLoss="45.30" rerouteNo="0" devices="tripinfo_25" vType="DEFAULT_VEHTYPE" speedFactor="1.09" vaporized=""/>
    <tripinfo id="11" depart="24.00" departLane="-661251539_0" departPos="5.10" departSpeed="0.00" departDelay="0.71" arrival="182.00" arrivalLane="153964138#0_0" arrivalPos="337.99" arrivalSpeed="14.76" duration="158.00" routeLength="1239.04" waitingTime="46.00" waitingCount="2" stopTime="0.00" timeLoss="64.04" rerouteNo="0" devices="tripinfo_11" vType="DEFAULT_VEHTYPE" speedFactor="0.91" vaporized=""/>
    <tripinfo id="26" depart="56.00" departLane="-231177697#2_0" departPos="5.10" departSpeed="0.00" departDelay="0.94" arrival="184.00" arrivalLane="450554042#0_0" arrivalPos="622.66" arrivalSpeed="15.95" duration="128.00" routeLength="1613.58" waitingTime="10.00" waitingCount="1" stopTime="0.00" timeLoss="23.58" rerouteNo="0" devices="tripinfo_26" vType="DEFAULT_VEHTYPE" speedFactor="0.99" vaporized=""/>
    <tripinfo id="54" depart="115.00" departLane="256961141#0_0" departPos="5.10" departSpeed="0.00" departDelay="0.65" arrival="205.00" arrivalLane="450554042#0_0" arrivalPos="622.66" arrivalSpeed="13.11" duration="90.00" routeLength="853.74" waitingTime="13.00" waitingCount="1" stopTime="0.00" timeLoss="24.82" rerouteNo="0" devices="tripinfo_54" vType="DEFAULT_VEHTYPE" speedFactor="0.84" vaporized=""/>
    <tripinfo id="45" depart="97.00" departLane="-218680176#1_0" departPos="5.10" departSpeed="0.00" departDelay="1.71" arrival="210.00" arrivalLane="226276377#0_0" arrivalPos="135.52" arrivalSpeed="12.15" duration="113.00" routeLength="1117.57" waitingTime="12.00" waitingCount="2" stopTime="0.00" timeLoss="33.43" rerouteNo="0" devices="tripinfo_45" vType="DEFAULT_VEHTYPE" speedFactor="0.95" vaporized=""/>
    <tripinfo id="68" depart="144.00" departLane="-218680176#1_0" departPos="5.10" departSpeed="0.00" departDelay="0.00" arrival="217.00" arrivalLane="231177697#0_0" arrivalPos="74.44" arrivalSpeed="12.04" duration="73.00" routeLength="205.97" waitingTime="46.00" waitingCount="1" stopTime="0.00" timeLoss="56.21" rerouteNo="0" devices="tripinfo_68" vType="DEFAULT_VEHTYPE" speedFactor="0.93" vaporized=""/>
    <tripinfo id="46" depart="98.00" departLane="978867529_0" departPos="5.10" departSpeed="0.00" departDelay="0.59" arrival="219.00" arrivalLane="210831347#0_0" arrivalPos="149.88" arrivalSpeed="11.54" duration="121.00" routeLength="812.56" waitingTime="40.00" waitingCount="3" stopTime="0.00" timeLoss="58.92" rerouteNo="0" devices="tripinfo_46" vType="DEFAULT_VEHTYPE" speedFactor="0.90" vaporized=""/>
    <tripinfo id="79" depart="168.00" departLane="-231177697#2_0" departPos="5.10" departSpeed="0.00" departDelay="0.71" arrival="229.00" arrivalLane="153964138#0_0" arrivalPos="337.99" arrivalSpeed="16.00" duration="61.00" routeLength="417.38" waitingTime="23.00" waitingCount="1" stopTime="0.00" timeLoss="33.07" rerouteNo="0" devices="tripinfo_79" vType="DEFAULT_VEHTYPE" speedFactor="0.97" vaporized=""/>
    <tripinfo id="57" depart="121.00" departLane="E8_0" departPos="5.10" departSpeed="0.00" departDelay="0.29" arrival="234.00" arrivalLane="39907424_0" arrivalPos="316.44" arrivalSpeed="11.70" duration="113.00" routeLength="1303.68" waitingTime="0.00" waitingCount="0" stopTime="0.00" timeLoss="10.46" rerouteNo="0" devices="tripinfo_57" vType="DEFAULT_VEHTYPE" speedFactor="0.89" vaporized=""/>
    <tripinfo id="49" depart="105.00" departLane="E8_0" departPos="5.10" departSpeed="0.00" departDelay="1.24" arrival="236.00" arrivalLane="39907424_0" arrivalPos="316.44" arrivalSpeed="13.97" duration="131.00" routeLength="1303.68" waitingTime="20.00" waitingCount="1" stopTime="0.00" timeLoss="42.94" rerouteNo="0" devices="tripinfo_49" vType="DEFAULT_VEHTYPE" speedFactor="1.04" vaporized=""/>
    <tripinfo id="74" depart="157.00" departLane="-226276377#1_0" departPos="5.10" departSpeed="0.00" departDelay="0.29" arrival="236.00" arrivalLane="210831345#1_0" arrivalPos="264.29" arrivalSpeed="12.62" duration="79.00" routeLength="977.93" waitingTime="0.00" waitingCount="0" stopTime="0.00" timeLoss="7.92" rerouteNo="0" devices="tripinfo_74" vType="DEFAULT_VEHTYPE" speedFactor="0.95" vaporized=""/>
    <tripinfo id="12" depart="26.00" departLane="E8_0" departPos="5.10" departSpeed="0.00" departDelay="0.59" arrival="245.00" arrivalLane="210831347#0_1" arrivalPos="149.88" arrivalSpeed="12.29" duration="219.00" routeLength="1367.17" waitingTime="98.00" waitingCount="2" stopTime="0.00" timeLoss="116.41" rerouteNo="0" devices="tripinfo_12" vType="DEFAULT_VEHTYPE" speedFactor="0.93" vaporized=""/>
    <tripinfo id="53" depart="113.00" departLane="-226276377#1_0" departPos="5.10" departSpeed="0.00" departDelay="0.76" arrival="247.00" arrivalLane="210831347#0_1" arrivalPos="149.88" arrivalSpeed="11.82" duration="134.00" routeLength="888.52" waitingTime="52.00" waitingCount="2" stopTime="0.00" timeLoss="68.88" rerouteNo="0" devices="tripinfo_53" vType="DEFAULT_VEHTYPE" speedFactor="0.94" vaporized=""/>
    <tripinfo id="62" depart="132.00" departLane="-218680176#1_0" departPos="5.10" departSpeed="0.00" departDelay="0.71" arrival="252.00" arrivalLane="210831345#1_1" arrivalPos="264.29" arrivalSpeed="14.21" duration="120.00" routeLength="699.94" waitingTime="57.00" waitingCount="2" stopTime="0.00" timeLoss="72.41" rerouteNo="0" devices="tripinfo_62" vType="DEFAULT_VEHTYPE" speedFactor="1.10" vaporized=""/>
    <tripinfo id="69" depart="147.00" departLane="666135205#0_0" departPos="5.10" departSpeed="0.00" departDelay="0.88" arrival="252.00" arrivalLane="153964138#0_1" arrivalPos="337.99" arrivalSpeed="18.40" duration="105.00" routeLength="924.87" waitingTime="28.00" waitingCount="2" stopTime="0.00" timeLoss="47.32" rerouteNo="0" devices="tripinfo_69" vType="DEFAULT_VEHTYPE" speedFactor="1.12" vaporized=""/>
    <tripinfo id="42" depart="89.00" departLane="-661251539_0" departPos="5.10" departSpeed="0.00" departDelay="0.06" arrival="254.00" arrivalLane="153964138#0_0" arrivalPos="337.99" arrivalSpeed="16.46" duration="165.00" routeLength="1239.04" waitingTime="55.00" waitingCount="3" stopTime="0.00" timeLoss="78.38" rerouteNo="0" devices="tripinfo_42" vType="DEFAULT_VEHTYPE" speedFactor="1.00" vaporized=""/>
    <tripinfo id="64" depart="136.00" departLane="978867529_0" departPos="5.10" departSpeed="0.00" departDelay="0.47" arrival="254.00" arrivalLane="39907424_0" arrivalPos="316.44" arrivalSpeed="12.07" duration="118.00" routeLength="1216.15" waitingTime="13.00" waitingCount="1" stopTime="0.00" timeLoss="28.39" rerouteNo="0" devices="tripinfo_64" vType="DEFAULT_VEHTYPE" speedFactor="0.92" vaporized=""/>
    <tripinfo id="72" depart="153.00" departLane="-661251539_0" departPos="5.10" departSpeed="0.00" departDelay="0.53" arrival="254.00" arrivalLane="153964138#0_1" arrivalPos="337.99" arrivalSpeed="17.48" duration="101.00" routeLength="1239.04" waitingTime="3.00" waitingCount="1" stopTime="0.00" timeLoss="23.43" rerouteNo="0" devices="tripinfo_72" vType="DEFAULT_VEHTYPE" speedFactor="1.11" vaporized=""/>
    <tripinfo id="55" depart="117.00" departLane="978867529_0" departPos="5.10" departSpeed="0.00" departDelay="0.53" arrival="256.00" arrivalLane="210831345#1_1" arrivalPos="264.29" arrivalSpeed="13.20" duration="139.00" routeLength="951.92" waitingTime="54.00" waitingCount="2" stopTime="0.00" timeLoss="70.24" rerouteNo="0" devices="tripinfo_55" vType="DEFAULT_VEHTYPE" speedFactor="0.95" vaporized=""/>
    <tripinfo id="71" depart="151.00" departLane="-231177697#2_0" departPos="5.10" departSpeed="0.00" departDelay="0.65" arrival="258.00" arrivalLane="39907424_0" arrivalPos="316.44" arrivalSpeed="14.11" duration="107.00" routeLength="961.15" waitingTime="26.00" waitingCount="1" stopTime="0.00" timeLoss="41.25" rerouteNo="0" devices="tripinfo_71" vType="DEFAULT_VEHTYPE" speedFactor="1.03" vaporized=""/>
    <tripinfo id="36" depart="77.00" departLane="978867529_0" departPos="5.10" departSpeed="0.00" departDelay="0.76" arrival="261.00" arrivalLane="210831345#1_0" arrivalPos="264.29" arrivalSpeed="11.36" duration="184.00" routeLength="951.92" waitingTime="88.00" waitingCount="2" stopTime="0.00" timeLoss="107.63" rerouteNo="0" devices="tripinfo_36" vType="DEFAULT_VEHTYPE" speedFactor="0.86" vaporized=""/>
    <tripinfo id="34" depart="72.00" departLane="-231177697#2_0" departPos="5.10" departSpeed="0.00" departDelay="0.00" arrival="262.00" arrivalLane="210831345#1_1" arrivalPos="264.29" arrivalSpeed="12.08" duration="190.00" routeLength="696.92" waitingTime="113.00" waitingCount="2" stopTime="0.00" timeLoss="134.89" rerouteNo="0" devices="tripinfo_34" vType="DEFAULT_VEHTYPE" speedFactor="0.94" vaporized=""/>
    <tripinfo id="86" depart="183.00" departLane="256961141#0_0" departPos="5.10" departSpeed="0.00" departDelay="0.88" arrival="262.00" arrivalLane="39907424_0" arrivalPos="316.44" arrivalSpeed="13.45" duration="79.00" routeLength="873.95" waitingTime="5.00" waitingCount="1" stopTime="0.00" timeLoss="19.28" rerouteNo="0" devices="tripinfo_86" vType="DEFAULT_VEHTYPE" speedFactor="1.02" vaporized=""/>
    <tripinfo id="39" depart="83.00" departLane="-231177697#2_0" departPos="5.10" departSpeed="0.00" departDelay="0.41" arrival="265.00" arrivalLane="210831345#1_0" arrivalPos="264.29" arrivalSpeed="11.06" duration="182.00" routeLength="696.92" waitingTime="107.00" waitingCount="2" stopTime="0.00" timeLoss="123.01" rerouteNo="0" devices="tripinfo_39" vType="DEFAULT_VEHTYPE" speedFactor="0.87" vaporized=""/>
    <tripinfo id="51" depart="108.00" departLane="666135205#0_0" departPos="5.10" departSpeed="0.00" departDelay="0.00" arrival="266.00" arrivalLane="218680176#0_1" arrivalPos="98.94" arrivalSpeed="12.32" duration="158.00" routeLength="693.09" waitingTime="88.00" waitingCount="2" stopTime="0.00" timeLoss="101.85" rerouteNo="0" devices="tripinfo_51" vType="DEFAULT_VEHTYPE" speedFactor="0.91" vaporized=""/>
    <tripinfo id="60" depart="128.00" departLane="666135205#0_0" departPos="5.10" departSpeed="0.00" departDelay="0.94" arrival="268.00" arrivalLane="218680176#0_1" arrivalPos="98.94" arrivalSpeed="13.54" duration="140.00" routeLength="693.09" waitingTime="73.00" waitingCount="2" stopTime="0.00" timeLoss="89.05" rerouteNo="0" devices="tripinfo_60" vType="DEFAULT_VEHTYPE" speedFactor="1.02" vaporized=""/>
    <tripinfo id="75" depart="159.00" departLane="E8_0" departPos="5.10" departSpeed="0.00" departDelay="0.18" arrival="268.00" arrivalLane="226276377#0_1" arrivalPos="135.52" arrivalSpeed="13.74" duration="109.00" routeLength="784.51" waitingTime="43.00" waitingCount="1" stopTime="0.00" timeLoss="54.15" rerouteNo="0" devices="tripinfo_75" vType="DEFAULT_VEHTYPE" speedFactor="1.05" vaporized=""/>
    <tripinfo id="88" depart="187.00" departLane="-218680176#1_0" departPos="5.10" departSpeed="0.00" departDelay="0.65" arrival="269.00" arrivalLane="210831347#0_0" arrivalPos="149.88" arrivalSpeed="12.47" duration="82.00" routeLength="560.58" waitingTime="19.00" waitingCount="2" stopTime="0.00" timeLoss="36.93" rerouteNo="0" devices="tripinfo_88" vType="DEFAULT_VEHTYPE" speedFactor="0.94" vaporized=""/>
    <tripinfo id="76" depart="161.00" departLane="-661251539_0" departPos="5.10" departSpeed="0.00" departDelay="0.06" arrival="270.00" arrivalLane="218680176#0_1" arrivalPos="98.94" arrivalSpeed="14.23" duration="109.00" routeLength="1001.21" waitingTime="23.00" waitingCount="1" stopTime="0.00" timeLoss="37.28" rerouteNo="0" devices="tripinfo_76" vType="DEFAULT_VEHTYPE" speedFactor="1.03" vaporized=""/>
    <tripinfo id="85" depart="180.00" departLane="E8_0" departPos="5.10" departSpeed="0.00" departDelay="0.00" arrival="270.00" arrivalLane="226276377#0_1" arrivalPos="135.52" arrivalSpeed="13.61" duration="90.00" routeLength="784.51" waitingTime="23.00" waitingCount="1" stopTime="0.00" timeLoss="35.00" rerouteNo="0" devices="tripinfo_85" vType="DEFAULT_VEHTYPE" speedFactor="1.04" vaporized=""/>
    <tripinfo id="9" depart="20.00" departLane="978867529_0" departPos="5.10" departSpeed="0.00" departDelay="0.94" arrival="273.00" arrivalLane="-256961141#1_1" arrivalPos="204.72" arrivalSpeed="13.62" duration="253.00" routeLength="1459.36" waitingTime="136.00" waitingCount="2" stopTime="0.00" timeLoss="156.95" rerouteNo="0" devices="tripinfo_9" vType="DEFAULT_VEHTYPE" speedFactor="1.00" vaporized=""/>
    <tripinfo id="38" depart="81.00" departLane="E8_0" departPos="5.10" departSpeed="0.00" departDelay="0.53" arrival="274.00" arrivalLane="218680176#0_1" arrivalPos="98.94" arrivalSpeed="10.22" duration="193.00" routeLength="1637.20" waitingTime="29.00" waitingCount="2" stopTime="0.00" timeLoss="52.35" rerouteNo="0" devices="tripinfo_38" vType="DEFAULT_VEHTYPE" speedFactor="0.82" vaporized=""/>
    <tripinfo id="44" depart="94.00" departLane="-218680176#1_0" departPos="5.10" departSpeed="0.00" departDelay="0.82" arrival="275.00" arrivalLane="-256961141#1_1" arrivalPos="204.72" arrivalSpeed="14.44" duration="181.00" routeLength="1207.38" waitingTime="76.00" waitingCount="2" stopTime="0.00" timeLoss="104.96" rerouteNo="0" devices="tripinfo_44" vType="DEFAULT_VEHTYPE" speedFactor="1.08" vaporized=""/>
    <tripinfo id="48" depart="102.00" departLane="E8_0" departPos="5.10" departSpeed="0.00" departDelay="0.35" arrival="275.00" arrivalLane="218680176#0_1" arrivalPos="98.94" arrivalSpeed="12.86" duration="173.00" routeLength="1637.20" waitingTime="32.00" waitingCount="2" stopTime="0.00" timeLoss="55.30" rerouteNo="0" devices="tripinfo_48" vType="DEFAULT_VEHTYPE" speedFactor="0.97" vaporized=""/>
    <tripinfo id="13" depart="28.00" departLane="-218680176#1_0" departPos="5.10" departSpeed="0.00" departDelay="0.47" arrival="279.00" arrivalLane="-256961141#1_1" arrivalPos="204.72" arrivalSpeed="11.39" duration="251.00" routeLength="1207.38" waitingTime="138.00" waitingCount="3" stopTime="0.00" timeLoss="160.64" rerouteNo="0" devices="tripinfo_13" vType="DEFAULT_VEHTYPE" speedFactor="0.91" vaporized=""/>
    <tripinfo id="65" depart="138.00" departLane="-231177697#2_0" departPos="5.10" departSpeed="0.00" departDelay="0.35" arrival="280.00" arrivalLane="-256961141#1_1" arrivalPos="204.72" arrivalSpeed="13.82" duration="142.00" routeLength="1204.36" waitingTime="41.00" waitingCount="2" stopTime="0.00" timeLoss="63.24" rerouteNo="0" devices="tripinfo_65" vType="DEFAULT_VEHTYPE" speedFactor="1.04" vaporized=""/>
    <tripinfo id="33" depart="70.00" departLane="-231177697#2_0" departPos="5.10" departSpeed="0.00" departDelay="0.12" arrival="285.00" arrivalLane="-256961141#1_1" arrivalPos="204.72" arrivalSpeed="10.79" duration="215.00" routeLength="1204.36" waitingTime="95.00" waitingCount="2" stopTime="0.00" timeLoss="116.21" rerouteNo="0" devices="tripinfo_33" vType="DEFAULT_VEHTYPE" speedFactor="0.82" vaporized=""/>
    <tripinfo id="103" depart="219.00" departLane="-661251539_0" departPos="5.10" departSpeed="0.00" departDelay="0.88" arrival="287.00" arrivalLane="-256961141#1_1" arrivalPos="204.72" arrivalSpeed="14.57" duration="68.00" routeLength="872.91" waitingTime="0.00" waitingCount="0" stopTime="0.00" timeLoss="13.96" rerouteNo="0" devices="tripinfo_103" vType="DEFAULT_VEHTYPE" speedFactor="1.12" vaporized=""/>
    <tripinfo id="95" depart="202.00" departLane="-661251539_0" departPos="5.10" departSpeed="0.00" departDelay="0.82" arrival="290.00" arrivalLane="210831345#1_0" arrivalPos="264.29" arrivalSpeed="13.18" duration="88.00" routeLength="826.64" waitingTime="12.00" waitingCount="1" stopTime="0.00" timeLoss="27.91" rerouteNo="0" devices="tripinfo_95" vType="DEFAULT_VEHTYPE" speedFactor="1.02" vaporized=""/>