<?xml version="1.0" encoding="UTF-8"?>

<!-- generated on 2024-09-02 15:59:45 by Eclipse SUMO sumo Version 1.20.0
<configuration xmlns:xsi="http://www.w3.org/2001/XMLSchema-instance" xsi:noNamespaceSchemaLocation="http://sumo.dlr.de/xsd/sumoConfiguration.xsd">

    <input>
        <net-file value="c:\self\School\Master\Disertation\code\RESCO\resco_benchmark\environments/unirii/osm.net.xml.gz"/>
        <route-files value="c:\self\School\Master\Disertation\code\RESCO\resco_benchmark\environments/unirii/osm.passenger.trips.xml"/>
        <additional-files value="c:\self\School\Master\Disertation\code\RESCO\resco_benchmark\environments/unirii/osm.poly.xml.gz"/>
    </input>

    <output>
        <tripinfo-output value="C:\self\School\Master\Disertation\code\RESCO\results\IDQN-tr0-unirii-0-drq-wait\tripinfo_20.xml"/>
        <tripinfo-output.write-unfinished value="true"/>
    </output>

    <processing>
        <ignore-route-errors value="true"/>
        <time-to-teleport value="-1"/>
    </processing>

    <routing>
        <device.rerouting.adaptation-steps value="18"/>
        <device.rerouting.adaptation-interval value="10"/>
    </routing>

    <report>
        <verbose value="true"/>
        <no-warnings value="True"/>
        <duration-log.statistics value="true"/>
        <no-step-log value="True"/>
    </report>

    <traci_server>
        <remote-port value="63254"/>
    </traci_server>

    <random_number>
        <random value="true"/>
    </random_number>

    <gui_only>
        <gui-settings-file value="c:\self\School\Master\Disertation\code\RESCO\resco_benchmark\environments/unirii/osm.view.xml"/>
    </gui_only>

</configuration>
-->

<tripinfos xmlns:xsi="http://www.w3.org/2001/XMLSchema-instance" xsi:noNamespaceSchemaLocation="http://sumo.dlr.de/xsd/tripinfo_file.xsd">
    <tripinfo id="6" depart="13.00" departLane="-218680176#1_0" departPos="5.10" departSpeed="0.00" departDelay="0.29" arrival="52.00" arrivalLane="153964138#0_2" arrivalPos="337.99" arrivalSpeed="17.94" duration="39.00" routeLength="462.27" waitingTime="2.00" waitingCount="1" stopTime="0.00" timeLoss="12.37" rerouteNo="0" devices="tripinfo_6" vType="DEFAULT_VEHTYPE" speedFactor="1.14" vaporized=""/>
    <tripinfo id="3" depart="7.00" departLane="E8_0" departPos="5.10" departSpeed="0.00" departDelay="0.65" arrival="81.00" arrivalLane="-256961141#1_0" arrivalPos="204.72" arrivalSpeed="12.47" duration="74.00" routeLength="832.89" waitingTime="0.00" waitingCount="0" stopTime="0.00" timeLoss="7.87" rerouteNo="0" devices="tripinfo_3" vType="DEFAULT_VEHTYPE" speedFactor="0.92" vaporized=""/>
    <tripinfo id="2" depart="5.00" departLane="666135205#0_0" departPos="5.10" departSpeed="0.00" departDelay="0.76" arrival="82.00" arrivalLane="231177697#0_0" arrivalPos="74.44" arrivalSpeed="13.97" duration="77.00" routeLength="649.17" waitingTime="17.00" waitingCount="1" stopTime="0.00" timeLoss="29.10" rerouteNo="0" devices="tripinfo_2" vType="DEFAULT_VEHTYPE" speedFactor="1.02" vaporized=""/>
    <tripinfo id="35" depart="75.00" departLane="-226276377#1_0" departPos="5.10" departSpeed="0.00" departDelay="0.88" arrival="129.00" arrivalLane="450554042#0_0" arrivalPos="622.66" arrivalSpeed="16.66" duration="54.00" routeLength="763.53" waitingTime="0.00" waitingCount="0" stopTime="0.00" timeLoss="7.37" rerouteNo="0" devices="tripinfo_35" vType="DEFAULT_VEHTYPE" speedFactor="1.04" vaporized=""/>
    <tripinfo id="1" depart="3.00" departLane="-231177697#2_0" departPos="5.10" departSpeed="0.00" departDelay="0.88" arrival="132.00" arrivalLane="210831345#1_0" arrivalPos="264.29" arrivalSpeed="11.28" duration="129.00" routeLength="696.92" waitingTime="55.00" waitingCount="2" stopTime="0.00" timeLoss="69.06" rerouteNo="0" devices="tripinfo_1" vType="DEFAULT_VEHTYPE" speedFactor="0.86" vaporized=""/>
    <tripinfo id="22" depart="47.00" departLane="-218680176#1_0" departPos="5.10" departSpeed="0.00" departDelay="0.41" arrival="137.00" arrivalLane="210831345#1_0" arrivalPos="264.29" arrivalSpeed="11.52" duration="90.00" routeLength="699.94" waitingTime="19.00" waitingCount="1" stopTime="0.00" timeLoss="31.17" rerouteNo="0" devices="tripinfo_22" vType="DEFAULT_VEHTYPE" speedFactor="0.87" vaporized=""/>
    <tripinfo id="23" depart="50.00" departLane="-218680176#1_0" departPos="5.10" departSpeed="0.00" departDelay="1.29" arrival="138.00" arrivalLane="210831345#1_1" arrivalPos="264.29" arrivalSpeed="13.21" duration="88.00" routeLength="699.94" waitingTime="17.00" waitingCount="1" stopTime="0.00" timeLoss="36.03" rerouteNo="0" devices="tripinfo_23" vType="DEFAULT_VEHTYPE" speedFactor="1.00" vaporized=""/>
    <tripinfo id="30" depart="64.00" departLane="E8_0" departPos="5.10" departSpeed="0.00" departDelay="0.47" arrival="145.00" arrivalLane="226276377#0_1" arrivalPos="135.52" arrivalSpeed="10.47" duration="81.00" routeLength="784.51" waitingTime="0.00" waitingCount="0" stopTime="0.00" timeLoss="10.94" rerouteNo="0" devices="tripinfo_30" vType="DEFAULT_VEHTYPE" speedFactor="0.82" vaporized=""/>
    <tripinfo id="4" depart="9.00" departLane="-661251539_0" departPos="5.10" departSpeed="0.00" departDelay="0.53" arrival="148.00" arrivalLane="-256961141#1_1" arrivalPos="204.72" arrivalSpeed="13.34" duration="139.00" routeLength="872.91" waitingTime="66.00" waitingCount="1" stopTime="0.00" timeLoss="79.04" rerouteNo="0" devices="tripinfo_4" vType="DEFAULT_VEHTYPE" speedFactor="1.01" vaporized=""/>
    <tripinfo id="0" depart="0.00" departLane="65746828#0_0" departPos="5.10" departSpeed="0.00" departDelay="0.00" arrival="151.00" arrivalLane="-256961141#1_1" arrivalPos="204.72" arrivalSpeed="13.58" duration="151.00" routeLength="931.50" waitingTime="70.00" waitingCount="2" stopTime="0.00" timeLoss="88.39" rerouteNo="0" devices="tripinfo_0" vType="DEFAULT_VEHTYPE" speedFactor="0.99" vaporized=""/>
    <tripinfo id="20" depart="43.00" departLane="666135205#0_0" departPos="5.10" departSpeed="0.00" departDelay="0.65" arrival="153.00" arrivalLane="-256961141#1_1" arrivalPos="204.72" arrivalSpeed="13.80" duration="110.00" routeLength="1068.72" waitingTime="29.00" waitingCount="1" stopTime="0.00" timeLoss="42.95" rerouteNo="0" devices="tripinfo_20" vType="DEFAULT_VEHTYPE" speedFactor="1.08" vaporized=""/>
    <tripinfo id="9" depart="20.00" departLane="978867529_0" departPos="5.10" departSpeed="0.00" departDelay="0.94" arrival="154.00" arrivalLane="-256961141#1_1" arrivalPos="204.72" arrivalSpeed="14.37" duration="134.00" routeLength="1459.36" waitingTime="21.00" waitingCount="2" stopTime="0.00" timeLoss="43.55" rerouteNo="0" devices="tripinfo_9" vType="DEFAULT_VEHTYPE" speedFactor="1.06" vaporized=""/>
    <tripinfo id="50" depart="106.00" departLane="-218680176#1_0" departPos="5.10" departSpeed="0.00" departDelay="0.12" arrival="172.00" arrivalLane="231177697#0_0" arrivalPos="74.44" arrivalSpeed="12.68" duration="66.00" routeLength="205.97" waitingTime="38.00" waitingCount="1" stopTime="0.00" timeLoss="49.92" rerouteNo="0" devices="tripinfo_50" vType="DEFAULT_VEHTYPE" speedFactor="0.98" vaporized=""/>
    <tripinfo id="21" depart="45.00" departLane="-231177697#2_0" departPos="5.10" departSpeed="0.00" departDelay="0.53" arrival="179.00" arrivalLane="210831345#1_1" arrivalPos="264.29" arrivalSpeed="13.27" duration="134.00" routeLength="696.92" waitingTime="65.00" waitingCount="2" stopTime="0.00" timeLoss="81.08" rerouteNo="0" devices="tripinfo_21" vType="DEFAULT_VEHTYPE" speedFactor="0.97" vaporized=""/>
    <tripinfo id="34" depart="72.00" departLane="-231177697#2_0" departPos="5.10" departSpeed="0.00" departDelay="0.00" arrival="181.00" arrivalLane="210831345#1_1" arrivalPos="264.29" arrivalSpeed="13.85" duration="109.00" routeLength="696.92" waitingTime="36.00" waitingCount="2" stopTime="0.00" timeLoss="57.39" rerouteNo="0" devices="tripinfo_34" vType="DEFAULT_VEHTYPE" speedFactor="1.00" vaporized=""/>
    <tripinfo id="68" depart="144.00" departLane="-218680176#1_0" departPos="5.10" departSpeed="0.00" departDelay="0.00" arrival="181.00" arrivalLane="231177697#0_0" arrivalPos="74.44" arrivalSpeed="11.32" duration="37.00" routeLength="205.97" waitingTime="4.00" waitingCount="1" stopTime="0.00" timeLoss="18.68" rerouteNo="0" devices="tripinfo_68" vType="DEFAULT_VEHTYPE" speedFactor="0.84" vaporized=""/>
    <tripinfo id="39" depart="83.00" departLane="-231177697#2_0" departPos="5.10" departSpeed="0.00" departDelay="0.41" arrival="183.00" arrivalLane="210831345#1_1" arrivalPos="264.29" arrivalSpeed="14.11" duration="100.00" routeLength="696.92" waitingTime="28.00" waitingCount="2" stopTime="0.00" timeLoss="49.44" rerouteNo="0" devices="tripinfo_39" vType="DEFAULT_VEHTYPE" speedFactor="1.02" vaporized=""/>
    <tripinfo id="54" depart="115.00" departLane="256961141#0_0" departPos="5.10" departSpeed="0.00" departDelay="0.65" arrival="197.00" arrivalLane="450554042#0_1" arrivalPos="622.66" arrivalSpeed="18.33" duration="82.00" routeLength="853.74" waitingTime="18.00" waitingCount="1" stopTime="0.00" timeLoss="32.61" rerouteNo="0" devices="tripinfo_54" vType="DEFAULT_VEHTYPE" speedFactor="1.11" vaporized=""/>
    <tripinfo id="40" depart="85.00" departLane="65746828#0_0" departPos="5.10" departSpeed="0.00" departDelay="0.29" arrival="198.00" arrivalLane="210831345#1_0" arrivalPos="264.29" arrivalSpeed="13.89" duration="113.00" routeLength="446.75" waitingTime="66.00" waitingCount="2" stopTime="0.00" timeLoss="80.93" rerouteNo="0" devices="tripinfo_40" vType="DEFAULT_VEHTYPE" speedFactor="1.02" vaporized=""/>
    <tripinfo id="47" depart="100.00" departLane="-218680176#1_0" departPos="5.10" departSpeed="0.00" departDelay="0.47" arrival="205.00" arrivalLane="210831347#0_0" arrivalPos="149.88" arrivalSpeed="10.53" duration="105.00" routeLength="560.58" waitingTime="42.00" waitingCount="1" stopTime="0.00" timeLoss="55.40" rerouteNo="0" devices="tripinfo_47" vType="DEFAULT_VEHTYPE" speedFactor="0.85" vaporized=""/>
    <tripinfo id="16" depart="34.00" departLane="256961141#0_0" departPos="5.10" departSpeed="0.00" departDelay="0.12" arrival="217.00" arrivalLane="450554042#0_0" arrivalPos="622.66" arrivalSpeed="11.09" duration="183.00" routeLength="853.74" waitingTime="92.00" waitingCount="1" stopTime="0.00" timeLoss="102.13" rerouteNo="0" devices="tripinfo_16" vType="DEFAULT_VEHTYPE" speedFactor="0.68" vaporized=""/>
    <tripinfo id="75" depart="159.00" departLane="E8_0" departPos="5.10" departSpeed="0.00" departDelay="0.18" arrival="223.00" arrivalLane="226276377#0_1" arrivalPos="135.52" arrivalSpeed="13.40" duration="64.00" routeLength="784.51" waitingTime="0.00" waitingCount="0" stopTime="0.00" timeLoss="6.24" rerouteNo="0" devices="tripinfo_75" vType="DEFAULT_VEHTYPE" speedFactor="1.00" vaporized=""/>
    <tripinfo id="79" depart="168.00" departLane="-231177697#2_0" departPos="5.10" departSpeed="0.00" departDelay="0.71" arrival="229.00" arrivalLane="153964138#0_0" arrivalPos="337.99" arrivalSpeed="15.90" duration="61.00" routeLength="417.38" waitingTime="24.00" waitingCount="1" stopTime="0.00" timeLoss="33.45" rerouteNo="0" devices="tripinfo_79" vType="DEFAULT_VEHTYPE" speedFactor="1.00" vaporized=""/>
    <tripinfo id="33" depart="70.00" departLane="-231177697#2_0" departPos="5.10" departSpeed="0.00" departDelay="0.12" arrival="236.00" arrivalLane="-256961141#1_1" arrivalPos="204.72" arrivalSpeed="14.01" duration="166.00" routeLength="1204.36" waitingTime="67.00" waitingCount="2" stopTime="0.00" timeLoss="85.03" rerouteNo="0" devices="tripinfo_33" vType="DEFAULT_VEHTYPE" speedFactor="1.01" vaporized=""/>
    <tripinfo id="13" depart="28.00" departLane="-218680176#1_0" departPos="5.10" departSpeed="0.00" departDelay="0.47" arrival="237.00" arrivalLane="-256961141#1_1" arrivalPos="204.72" arrivalSpeed="14.98" duration="209.00" routeLength="1207.38" waitingTime="109.00" waitingCount="2" stopTime="0.00" timeLoss="137.74" rerouteNo="0" devices="tripinfo_13" vType="DEFAULT_VEHTYPE" speedFactor="1.15" vaporized=""/>
    <tripinfo id="10" depart="23.00" departLane="978867529_0" departPos="5.10" departSpeed="0.00" departDelay="1.82" arrival="238.00" arrivalLane="231177697#0_1" arrivalPos="74.44" arrivalSpeed="14.78" duration="215.00" routeLength="437.06" waitingTime="178.00" waitingCount="1" stopTime="0.00" timeLoss="188.90" rerouteNo="0" devices="tripinfo_10" vType="DEFAULT_VEHTYPE" speedFactor="1.10" vaporized=""/>
    <tripinfo id="7" depart="15.00" departLane="65746828#0_0" departPos="5.10" departSpeed="0.00" departDelay="0.18" arrival="240.00" arrivalLane="218680176#0_1" arrivalPos="98.94" arrivalSpeed="14.79" duration="225.00" routeLength="602.71" waitingTime="168.00" waitingCount="2" stopTime="0.00" timeLoss="183.73" rerouteNo="0" devices="tripinfo_7" vType="DEFAULT_VEHTYPE" speedFactor="1.09" vaporized=""/>
    <tripinfo id="15" depart="33.00" departLane="978867529_0" departPos="5.10" departSpeed="0.00" departDelay="1.24" arrival="241.00" arrivalLane="231177697#0_1" arrivalPos="74.44" arrivalSpeed="12.82" duration="208.00" routeLength="437.06" waitingTime="168.00" waitingCount="1" stopTime="0.00" timeLoss="179.04" rerouteNo="0" devices="tripinfo_15" vType="DEFAULT_VEHTYPE" speedFactor="1.01" vaporized=""/>
    <tripinfo id="17" depart="36.00" departLane="-661251539_0" departPos="5.10" departSpeed="0.00" departDelay="0.00" arrival="242.00" arrivalLane="218680176#0_1" arrivalPos="98.94" arrivalSpeed="13.27" duration="206.00" routeLength="1001.21" waitingTime="119.00" waitingCount="1" stopTime="0.00" timeLoss="133.15" rerouteNo="0" devices="tripinfo_17" vType="DEFAULT_VEHTYPE" speedFactor="1.01" vaporized=""/>
    <tripinfo id="19" depart="42.00" departLane="978867529_0" departPos="5.10" departSpeed="0.00" departDelay="1.76" arrival="242.00" arrivalLane="226276377#0_0" arrivalPos="135.52" arrivalSpeed="11.96" duration="200.00" routeLength="1369.55" waitingTime="90.00" waitingCount="1" stopTime="0.00" timeLoss="104.34" rerouteNo="0" devices="tripinfo_19" vType="DEFAULT_VEHTYPE" speedFactor="0.94" vaporized=""/>
    <tripinfo id="32" depart="68.00" departLane="978867529_0" departPos="5.10" departSpeed="0.00" departDelay="0.24" arrival="242.00" arrivalLane="231177697#0_1" arrivalPos="74.44" arrivalSpeed="13.95" duration="174.00" routeLength="437.06" waitingTime="135.00" waitingCount="1" stopTime="0.00" timeLoss="148.05" rerouteNo="0" devices="tripinfo_32" vType="DEFAULT_VEHTYPE" speedFactor="1.10" vaporized=""/>
    <tripinfo id="86" depart="183.00" departLane="256961141#0_0" departPos="5.10" departSpeed="0.00" departDelay="0.88" arrival="243.00" arrivalLane="39907424_0" arrivalPos="316.44" arrivalSpeed="15.88" duration="60.00" routeLength="873.95" waitingTime="0.00" waitingCount="0" stopTime="0.00" timeLoss="10.43" rerouteNo="0" devices="tripinfo_86" vType="DEFAULT_VEHTYPE" speedFactor="1.21" vaporized=""/>
    <tripinfo id="51" depart="108.00" departLane="666135205#0_0" departPos="5.10" departSpeed="0.00" departDelay="0.00" arrival="244.00" arrivalLane="218680176#0_1" arrivalPos="98.94" arrivalSpeed="13.25" duration="136.00" routeLength="693.09" waitingTime="67.00" waitingCount="2" stopTime="0.00" timeLoss="83.32" rerouteNo="0" devices="tripinfo_51" vType="DEFAULT_VEHTYPE" speedFactor="0.97" vaporized=""/>
    <tripinfo id="60" depart="128.00" departLane="666135205#0_0" departPos="5.10" departSpeed="0.00" departDelay="0.94" arrival="246.00" arrivalLane="218680176#0_1" arrivalPos="98.94" arrivalSpeed="13.49" duration="118.00" routeLength="693.09" waitingTime="46.00" waitingCount="3" stopTime="0.00" timeLoss="68.46" rerouteNo="0" devices="tripinfo_60" vType="DEFAULT_VEHTYPE" speedFactor="1.04" vaporized=""/>
    <tripinfo id="14" depart="30.00" departLane="978867529_0" departPos="5.10" departSpeed="0.00" departDelay="0.35" arrival="247.00" arrivalLane="226276377#0_0" arrivalPos="135.52" arrivalSpeed="10.99" duration="217.00" routeLength="1369.55" waitingTime="89.00" waitingCount="1" stopTime="0.00" timeLoss="103.94" rerouteNo="0" devices="tripinfo_14" vType="DEFAULT_VEHTYPE" speedFactor="0.79" vaporized=""/>
    <tripinfo id="18" depart="39.00" departLane="978867529_0" departPos="5.10" departSpeed="0.00" departDelay="0.88" arrival="250.00" arrivalLane="226276377#0_0" arrivalPos="135.52" arrivalSpeed="10.37" duration="211.00" routeLength="1369.55" waitingTime="86.00" waitingCount="1" stopTime="0.00" timeLoss="101.84" rerouteNo="0" devices="tripinfo_18" vType="DEFAULT_VEHTYPE" speedFactor="0.82" vaporized=""/>
    <tripinfo id="27" depart="58.00" departLane="65746828#0_0" departPos="5.10" departSpeed="0.00" departDelay="0.82" arrival="251.00" arrivalLane="226276377#0_0" arrivalPos="135.52" arrivalSpeed="12.70" duration="193.00" routeLength="841.69" waitingTime="117.00" waitingCount="2" stopTime="0.00" timeLoss="140.12" rerouteNo="0" devices="tripinfo_27" vType="DEFAULT_VEHTYPE" speedFactor="1.06" vaporized=""/>
    <tripinfo id="52" depart="111.00" departLane="-231177697#2_0" departPos="5.10" departSpeed="0.00" departDelay="0.88" arrival="253.00" arrivalLane="226276377#0_0" arrivalPos="135.52" arrivalSpeed="14.78" duration="142.00" routeLength="1114.55" waitingTime="44.00" waitingCount="2" stopTime="0.00" timeLoss="72.86" rerouteNo="0" devices="tripinfo_52" vType="DEFAULT_VEHTYPE" speedFactor="1.09" vaporized=""/>
    <tripinfo id="58" depart="123.00" departLane="-231177697#2_0" departPos="5.10" departSpeed="0.00" departDelay="0.18" arrival="256.00" arrivalLane="226276377#0_0" arrivalPos="135.52" arrivalSpeed="12.36" duration="133.00" routeLength="1114.55" waitingTime="27.00" waitingCount="2" stopTime="0.00" timeLoss="52.66" rerouteNo="0" devices="tripinfo_58" vType="DEFAULT_VEHTYPE" speedFactor="0.95" vaporized=""/>
    <tripinfo id="91" depart="193.00" departLane="E8_0" departPos="5.10" departSpeed="0.00" departDelay="0.29" arrival="256.00" arrivalLane="-256961141#1_0" arrivalPos="204.72" arrivalSpeed="15.08" duration="63.00" routeLength="832.89" waitingTime="0.00" waitingCount="0" stopTime="0.00" timeLoss="8.15" rerouteNo="0" devices="tripinfo_91" vType="DEFAULT_VEHTYPE" speedFactor="1.12" vaporized=""/>
    <tripinfo id="45" depart="97.00" departLane="-218680176#1_0" departPos="5.10" departSpeed="0.00" departDelay="1.71" arrival="257.00" arrivalLane="226276377#0_0" arrivalPos="135.52" arrivalSpeed="13.16" duration="160.00" routeLength="1117.57" waitingTime="53.00" waitingCount="2" stopTime="0.00" timeLoss="87.41" rerouteNo="0" devices="tripinfo_45" vType="DEFAULT_VEHTYPE" speedFactor="1.04" vaporized=""/>
    <tripinfo id="78" depart="166.00" departLane="-661251539_0" departPos="5.10" departSpeed="0.00" departDelay="0.82" arrival="260.00" arrivalLane="226276377#0_0" arrivalPos="135.52" arrivalSpeed="15.17" duration="94.00" routeLength="783.10" waitingTime="23.00" waitingCount="2" stopTime="0.00" timeLoss="46.05" rerouteNo="0" devices="tripinfo_78" vType="DEFAULT_VEHTYPE" speedFactor="1.13" vaporized=""/>
    <tripinfo id="88" depart="187.00" departLane="-218680176#1_0" departPos="5.10" departSpeed="0.00" departDelay="0.65" arrival="271.00" arrivalLane="210831347#0_0" arrivalPos="149.88" arrivalSpeed="12.58" duration="84.00" routeLength="560.58" waitingTime="21.00" waitingCount="2" stopTime="0.00" timeLoss="40.18" rerouteNo="0" devices="tripinfo_88" vType="DEFAULT_VEHTYPE" speedFactor="0.95" vaporized=""/>
    <tripinfo id="26" depart="56.00" departLane="-231177697#2_0" departPos="5.10" departSpeed="0.00" departDelay="0.94" arrival="274.00" arrivalLane="450554042#0_0" arrivalPos="622.66" arrivalSpeed="15.46" duration="218.00" routeLength="1613.58" waitingTime="83.00" waitingCount="3" stopTime="0.00" timeLoss="108.68" rerouteNo="0" devices="tripinfo_26" vType="DEFAULT_VEHTYPE" speedFactor="0.95" vaporized=""/>
    <tripinfo id="74" depart="157.00" departLane="-226276377#1_0" departPos="5.10" departSpeed="0.00" departDelay="0.29" arrival="277.00" arrivalLane="210831345#1_0" arrivalPos="264.29" arrivalSpeed="13.20" duration="120.00" routeLength="977.93" waitingTime="38.00" waitingCount="1" stopTime="0.00" timeLoss="49.81" rerouteNo="0" devices="tripinfo_74" vType="DEFAULT_VEHTYPE" speedFactor="0.97" vaporized=""/>
    <tripinfo id="63" depart="135.00" departLane="-218680176#1_0" departPos="5.10" departSpeed="0.00" departDelay="1.59" arrival="279.00" arrivalLane="450554042#0_0" arrivalPos="622.66" arrivalSpeed="14.59" duration="144.00" routeLength="1616.60" waitingTime="12.00" waitingCount="1" stopTime="0.00" timeLoss="31.08" rerouteNo="0" devices="tripinfo_63" vType="DEFAULT_VEHTYPE" speedFactor="0.92" vaporized=""/>
    <tripinfo id="115" depart="244.00" departLane="-218680176#1_0" departPos="5.10" departSpeed="0.00" departDelay="0.47" arrival="279.00" arrivalLane="153964138#0_2" arrivalPos="337.99" arrivalSpeed="16.42" duration="35.00" routeLength="462.27" waitingTime="0.00" waitingCount="0" stopTime="0.00" timeLoss="4.96" rerouteNo="0" devices="tripinfo_115" vType="DEFAULT_VEHTYPE" speedFactor="0.99" vaporized=""/>
    <tripinfo id="41" depart="88.00" departLane="65746828#0_0" departPos="5.10" departSpeed="0.00" departDelay="1.18" arrival="281.00" arrivalLane="450554042#0_0" arrivalPos="622.66" arrivalSpeed="15.73" duration="193.00" routeLength="1340.72" waitingTime="88.00" waitingCount="3" stopTime="0.00" timeLoss="110.65" rerouteNo="0" devices="tripinfo_41" vType="DEFAULT_VEHTYPE" speedFactor="1.02" vaporized=""/>
    <tripinfo id="49" depart="105.00" departLane="E8_0" departPos="5.10" departSpeed="0.00" departDelay="1.24" arrival="281.00" arrivalLane="39907424_0" arrivalPos="316.44" arrivalSpeed="13.78" duration="176.00" routeLength="1303.68" waitingTime="69.00" waitingCount="1" stopTime="0.00" timeLoss="84.49" rerouteNo="0" devices="tripinfo_49" vType="DEFAULT_VEHTYPE" speedFactor="1.00" vaporized=""/>
    <tripinfo id="95" depart="202.00" departLane="-661251539_0" departPos="5.10" departSpeed="0.00" departDelay="0.82" arrival="283.00" arrivalLane="210831345#1_0" arrivalPos="264.29" arrivalSpeed="12.26" duration="81.00" routeLength="826.64" waitingTime="0.00" waitingCount="0" stopTime="0.00" timeLoss="16.95" rerouteNo="0" devices="tripinfo_95" vType="DEFAULT_VEHTYPE" speedFactor="0.96" vaporized=""/>
    <tripinfo id="57" depart="121.00" departLane="E8_0" departPos="5.10" departSpeed="0.00" departDelay="0.29" arrival="284.00" arrivalLane="39907424_0" arrivalPos="316.44" arrivalSpeed="12.84" duration="163.00" routeLength="1303.68" waitingTime="55.00" waitingCount="1" stopTime="0.00" timeLoss="71.92" rerouteNo="0" devices="tripinfo_57" vType="DEFAULT_VEHTYPE" speedFactor="1.00" vaporized=""/>
    <tripinfo id="31" depart="66.00" departLane="65746828#0_0" departPos="5.10" departSpeed="0.00" departDelay="0.35" arrival="291.00" arrivalLane="231177697#0_0" arrivalPos="74.44" arrivalSpeed="11.34" duration="225.00" routeLength="558.79" waitingTime="161.00" waitingCount="2" stopTime="0.00" timeLoss="176.04" rerouteNo="0" devices="tripinfo_31" vType="DEFAULT_VEHTYPE" speedFactor="0.86" vaporized=""/>
    <tripinfo id="114" depart="242.00" departLane="-226276377#1_0" departPos="5.10" departSpeed="0.00" departDelay="0.59" arrival="291.00" arrivalLane="450554042#0_0" arrivalPos="622.66" arrivalSpeed="19.14" duration="49.00" routeLength="763.53" waitingTime="0.00" waitingCount="0" stopTime="0.00" timeLoss="7.30" rerouteNo="0" devices="tripinfo_114" vType="DEFAULT_VEHTYPE" speedFactor="1.18" vaporized=""/>
    <tripinfo id="61" depart="130.00" departLane="978867529_0" departPos="5.10" departSpeed="0.00" departDelay="0.82" arrival="292.00" arrivalLane="218680176#0_0" arrivalPos="98.94" arrivalSpeed="11.53" duration="162.00" routeLength="442.15" waitingTime="118.00" waitingCount="1" stopTime="0.00" timeLoss="129.46" rerouteNo="0" devices="tripinfo_61" vType="DEFAULT_VEHTYPE" speedFactor="0.90" vaporized=""/>
    <tripinfo id="28" depart="60.00" departLane="-226276377#1_0" departPos="5.10" departSpeed="0.00" departDelay="0.71" arrival="294.00" arrivalLane="231177697#0_0" arrivalPos="74.44" arrivalSpeed="14.29" duration="234.00" routeLength="1114.63" waitingTime="140.00" waitingCount="2" stopTime="0.00" timeLoss="162.04" rerouteNo="0" devices="tripinfo_28" vType="DEFAULT_VEHTYPE" speedFactor="1.08" vaporized=""/>
    <tripinfo id="71" depart="151.00" departLane="-231177697#2_0" departPos="5.10" departSpeed="0.00" departDelay="0.65" arrival="297.00" arrivalLane="39907424_0" arrivalPos="316.44" arrivalSpeed="14.11" duration="146.00" routeLength="961.15" waitingTime="61.00" waitingCount="2" stopTime="0.00" timeLoss="79.95" rerouteNo="0" devices="tripinfo_71" vType="DEFAULT_VEHTYPE" speedFactor="1.02" vaporized=""/>
    <tripinfo id="90" depart="191.00" departLane="666135205#0_0" departPos="5.10" departSpeed="0.00" departDelay="0.41" arrival="297.00" arrivalLane="231177697#0_0" arrivalPos="74.44" arrivalSpeed="14.68" duration="106.00" routeLength="649.17" waitingTime="44.00" waitingCount="1" stopTime="0.00" timeLoss="60.93" rerouteNo="0" devices="tripinfo_90" vType="DEFAULT_VEHTYPE" speedFactor="1.08" vaporized=""/>
    <tripinfo id="59" depart="125.00" departLane="65746828#0_0" departPos="5.10" departSpeed="0.00" departDelay="0.06" arrival="301.00" arrivalLane="153964138#0_1" arrivalPos="337.99" arrivalSpeed="18.07" duration="176.00" routeLength="834.49" waitingTime="115.00" waitingCount="1" stopTime="0.00" timeLoss="127.19" rerouteNo="0" devices="tripinfo_59" vType="DEFAULT_VEHTYPE" speedFactor="1.16" vaporized=""/>
    <tripinfo id="108" depart="229.00" departLane="65746828#0_0" departPos="5.10" departSpeed="0.00" departDelay="0.29" arrival="301.00" arrivalLane="231177697#0_0" arrivalPos="74.44" arrivalSpeed="11.58" duration="72.00" routeLength="558.79" waitingTime="8.00" waitingCount="1" stopTime="0.00" timeLoss="24.02" rerouteNo="0" devices="tripinfo_108" vType="DEFAULT_VEHTYPE" speedFactor="0.87" vaporized=""/>
    <tripinfo id="11" depart="24.00" departLane="-661251539_0" departPos="5.10" departSpeed="0.00" departDelay="0.71" arrival="302.00" arrivalLane="153964138#0_0" arrivalPos="337.99" arrivalSpeed="17.43" duration="278.00" routeLength="1239.04" waitingTime="177.00" waitingCount="2" stopTime="0.00" timeLoss="199.11" rerouteNo="0" devices="tripinfo_11" vType="DEFAULT_VEHTYPE" speedFactor="1.08" vaporized=""/>
    <tripinfo id="25" depart="53.00" departLane="-661251539_0" departPos="5.10" departSpeed="0.00" departDelay="0.06" arrival="303.00" arrivalLane="153964138#0_0" arrivalPos="337.99" arrivalSpeed="17.06" duration="250.00" routeLength="1239.04" waitingTime="152.00" waitingCount="1" stopTime="0.00" timeLoss="167.52" rerouteNo="0" devices="tripinfo_25" vType="DEFAULT_VEHTYPE" speedFactor="1.04" vaporized=""/>
    <tripinfo id="73" depart="155.00" departLane="256961141#0_0" departPos="5.10" departSpeed="0.00" departDelay="0.41" arrival="303.00" arrivalLane="231177697#0_0" arrivalPos="74.44" arrivalSpeed="14.72" duration="148.00" routeLength="1163.55" waitingTime="38.00" waitingCount="3" stopTime="0.00" timeLoss="73.43" rerouteNo="0" devices="tripinfo_73" vType="DEFAULT_VEHTYPE" speedFactor="1.10" vaporized=""/>
    <tripinfo id="69" depart="147.00" departLane="666135205#0_0" departPos="5.10" departSpeed="0.00" departDelay="0.88" arrival="304.00" arrivalLane="153964138#0_2" arrivalPos="337.99" arrivalSpeed="16.56" duration="157.00" routeLength="924.87" waitingTime="74.00" waitingCount="3" stopTime="0.00" timeLoss="97.56" rerouteNo="0" devices="tripinfo_69" vType="DEFAULT_VEHTYPE" speedFactor="1.06" vaporized=""/>
    <tripinfo id="80" depart="170.00" departLane="-218680176#1_0" departPos="5.10" departSpeed="0.00" departDelay="0.59" arrival="304.00" arrivalLane="226276377#0_0" arrivalPos="135.52" arrivalSpeed="13.98" duration="134.00" routeLength="1117.57" waitingTime="41.00" waitingCount="2" stopTime="0.00" timeLoss="62.79" rerouteNo="0" devices="tripinfo_80" vType="DEFAULT_VEHTYPE" speedFactor="1.08" vaporized=""/>
    <tripinfo id="42" depart="89.00" departLane="-661251539_0" departPos="5.10" departSpeed="0.00" departDelay="0.06" arrival="308.00" arrivalLane="153964138#0_1" arrivalPos="337.99" arrivalSpeed="14.82" duration="219.00" routeLength="1239.04" waitingTime="107.00" waitingCount="2" stopTime="0.00" timeLoss="126.28" rerouteNo="0" devices="tripinfo_42" vType="DEFAULT_VEHTYPE" speedFactor="0.93" vaporized=""/>
    <tripinfo id="72" depart="153.00" departLane="-661251539_0" departPos="5.10" departSpeed="0.00" departDelay="0.53" arrival="308.00" arrivalLane="153964138#0_2" arrivalPos="337.99" arrivalSpeed="15.37" duration="155.00" routeLength="1239.04" waitingTime="45.00" waitingCount="2" stopTime="0.00" timeLoss="64.22" rerouteNo="0" devices="tripinfo_72" vType="DEFAULT_VEHTYPE" speedFactor="0.94" vaporized=""/>
    <tripinfo id="56" depart="119.00" departLane="256961141#0_0" departPos="5.10" departSpeed="0.00" departDelay="0.41" arrival="309.00" arrivalLane="153964138#0_0" arrivalPos="337.99" arrivalSpeed="15.24" duration="190.00" routeLength="1439.25" waitingTime="69.00" waitingCount="2" stopTime="0.00" timeLoss="89.10" rerouteNo="0" devices="tripinfo_56" vType="DEFAULT_VEHTYPE" speedFactor="0.96" vaporized=""/>
    <tripinfo id="70" depart="149.00" departLane="256961141#0_0" departPos="5.10" departSpeed="0.00" departDelay="0.76" arrival="314.00" arrivalLane="218680176#0_1" arrivalPos="98.94" arrivalSpeed="14.18" duration="165.00" routeLength="1207.47" waitingTime="63.00" waitingCount="3" stopTime="0.00" timeLoss="87.69" rerouteNo="0" devices="tripinfo_70" vType="DEFAULT_VEHTYPE" speedFactor="1.09" vaporized=""/>
    <tripinfo id="132" depart="280.00" departLane="978867529_0" departPos="5.10" departSpeed="0.00" departDelay="0.47" arrival="315.00" arrivalLane="231177697#0_1" arrivalPos="74.44" arrivalSpeed="12.67" duration="35.00" routeLength="437.06" waitingTime="0.00" waitingCount="0" stopTime="0.00" timeLoss="5.59" rerouteNo="0" devices="tripinfo_132" vType="DEFAULT_VEHTYPE" speedFactor="0.97" vaporized=""/>