<?xml version="1.0" encoding="UTF-8"?>

<!-- generated on 2024-08-31 19:36:44 by Eclipse SUMO sumo Version 1.20.0
<configuration xmlns:xsi="http://www.w3.org/2001/XMLSchema-instance" xsi:noNamespaceSchemaLocation="http://sumo.dlr.de/xsd/sumoConfiguration.xsd">

    <input>
        <net-file value="c:\self\School\Master\Disertation\code\RESCO\resco_benchmark\environments/romana/osm.net.xml.gz"/>
        <route-files value="c:\self\School\Master\Disertation\code\RESCO\resco_benchmark\environments/romana/osm.passenger.trips.xml"/>
        <additional-files value="c:\self\School\Master\Disertation\code\RESCO\resco_benchmark\environments/romana/osm.poly.xml.gz"/>
    </input>

    <output>
        <tripinfo-output value="C:\self\School\Master\Disertation\code\RESCO\results\IPPO-tr0-romana-0-drq_norm-wait_norm\tripinfo_28.xml"/>
        <tripinfo-output.write-unfinished value="true"/>
    </output>

    <processing>
        <ignore-route-errors value="true"/>
        <time-to-teleport value="-1"/>
    </processing>

    <routing>
        <device.rerouting.adaptation-steps value="18"/>
        <device.rerouting.adaptation-interval value="10"/>
    </routing>

    <report>
        <verbose value="true"/>
        <no-warnings value="True"/>
        <duration-log.statistics value="true"/>
        <no-step-log value="True"/>
    </report>

    <traci_server>
        <remote-port value="59770"/>
    </traci_server>

    <random_number>
        <random value="true"/>
    </random_number>

    <gui_only>
        <gui-settings-file value="c:\self\School\Master\Disertation\code\RESCO\resco_benchmark\environments/romana/osm.view.xml"/>
    </gui_only>

</configuration>
-->

<tripinfos xmlns:xsi="http://www.w3.org/2001/XMLSchema-instance" xsi:noNamespaceSchemaLocation="http://sumo.dlr.de/xsd/tripinfo_file.xsd">
    <tripinfo id="0" depart="0.00" departLane="448266581#0_0" departPos="5.10" departSpeed="0.00" departDelay="0.00" arrival="33.00" arrivalLane="119238380#0_0" arrivalPos="135.86" arrivalSpeed="11.41" duration="33.00" routeLength="354.71" waitingTime="0.00" waitingCount="0" stopTime="0.00" timeLoss="5.49" rerouteNo="0" devices="tripinfo_0" vType="DEFAULT_VEHTYPE" speedFactor="0.89" vaporized=""/>
    <tripinfo id="1" depart="4.00" departLane="232079775#2_0" departPos="5.10" departSpeed="0.00" departDelay="0.40" arrival="35.00" arrivalLane="119238385#0_0" arrivalPos="144.87" arrivalSpeed="13.81" duration="31.00" routeLength="347.78" waitingTime="0.00" waitingCount="0" stopTime="0.00" timeLoss="5.87" rerouteNo="0" devices="tripinfo_1" vType="DEFAULT_VEHTYPE" speedFactor="1.03" vaporized=""/>
    <tripinfo id="2" depart="8.00" departLane="448266581#0_0" departPos="5.10" departSpeed="0.00" departDelay="0.80" arrival="76.00" arrivalLane="778823268#0_0" arrivalPos="238.22" arrivalSpeed="12.23" duration="68.00" routeLength="546.01" waitingTime="11.00" waitingCount="1" stopTime="0.00" timeLoss="24.62" rerouteNo="0" devices="tripinfo_2" vType="DEFAULT_VEHTYPE" speedFactor="0.90" vaporized=""/>
    <tripinfo id="12" depart="44.00" departLane="668307639#0_0" departPos="5.10" departSpeed="0.00" departDelay="0.80" arrival="78.00" arrivalLane="44499684#3_0" arrivalPos="84.04" arrivalSpeed="16.92" duration="34.00" routeLength="485.82" waitingTime="0.00" waitingCount="0" stopTime="0.00" timeLoss="4.80" rerouteNo="0" devices="tripinfo_12" vType="DEFAULT_VEHTYPE" speedFactor="1.02" vaporized=""/>
    <tripinfo id="10" depart="36.00" departLane="668307639#0_0" departPos="5.10" departSpeed="0.00" departDelay="0.00" arrival="80.00" arrivalLane="778823268#0_0" arrivalPos="238.22" arrivalSpeed="13.71" duration="44.00" routeLength="503.37" waitingTime="0.00" waitingCount="0" stopTime="0.00" timeLoss="8.93" rerouteNo="0" devices="tripinfo_10" vType="DEFAULT_VEHTYPE" speedFactor="1.00" vaporized=""/>
    <tripinfo id="7" depart="26.00" departLane="448266581#0_0" departPos="5.10" departSpeed="0.00" departDelay="0.80" arrival="96.00" arrivalLane="668307633#3_0" arrivalPos="112.63" arrivalSpeed="17.32" duration="70.00" routeLength="489.91" waitingTime="31.00" waitingCount="1" stopTime="0.00" timeLoss="42.72" rerouteNo="0" devices="tripinfo_7" vType="DEFAULT_VEHTYPE" speedFactor="1.08" vaporized=""/>
    <tripinfo id="15" depart="54.00" departLane="668307639#0_0" departPos="5.10" departSpeed="0.00" departDelay="0.00" arrival="101.00" arrivalLane="778823268#0_0" arrivalPos="238.22" arrivalSpeed="13.98" duration="47.00" routeLength="503.37" waitingTime="2.00" waitingCount="1" stopTime="0.00" timeLoss="12.81" rerouteNo="0" devices="tripinfo_15" vType="DEFAULT_VEHTYPE" speedFactor="1.01" vaporized=""/>
    <tripinfo id="20" depart="72.00" departLane="448266581#0_0" departPos="5.10" departSpeed="0.00" departDelay="0.00" arrival="101.00" arrivalLane="119238380#0_0" arrivalPos="135.86" arrivalSpeed="14.63" duration="29.00" routeLength="354.71" waitingTime="0.00" waitingCount="0" stopTime="0.00" timeLoss="5.41" rerouteNo="0" devices="tripinfo_20" vType="DEFAULT_VEHTYPE" speedFactor="1.06" vaporized=""/>
    <tripinfo id="17" depart="62.00" departLane="232079775#2_0" departPos="5.10" departSpeed="0.00" departDelay="0.80" arrival="107.00" arrivalLane="668307633#3_0" arrivalPos="112.63" arrivalSpeed="14.63" duration="45.00" routeLength="455.41" waitingTime="0.00" waitingCount="0" stopTime="0.00" timeLoss="11.04" rerouteNo="0" devices="tripinfo_17" vType="DEFAULT_VEHTYPE" speedFactor="0.91" vaporized=""/>
    <tripinfo id="25" depart="90.00" departLane="232079775#2_0" departPos="5.10" departSpeed="0.00" departDelay="0.00" arrival="129.00" arrivalLane="119238385#0_0" arrivalPos="144.87" arrivalSpeed="11.11" duration="39.00" routeLength="347.78" waitingTime="1.00" waitingCount="1" stopTime="0.00" timeLoss="8.42" rerouteNo="0" devices="tripinfo_25" vType="DEFAULT_VEHTYPE" speedFactor="0.84" vaporized=""/>
    <tripinfo id="27" depart="98.00" departLane="448266581#0_0" departPos="5.10" departSpeed="0.00" departDelay="0.80" arrival="134.00" arrivalLane="668307633#3_0" arrivalPos="112.63" arrivalSpeed="14.86" duration="36.00" routeLength="489.91" waitingTime="0.00" waitingCount="0" stopTime="0.00" timeLoss="4.29" rerouteNo="0" devices="tripinfo_27" vType="DEFAULT_VEHTYPE" speedFactor="0.93" vaporized=""/>
    <tripinfo id="3" depart="11.00" departLane="668307639#0_0" departPos="5.10" departSpeed="0.00" departDelay="0.20" arrival="146.00" arrivalLane="119238380#0_0" arrivalPos="135.86" arrivalSpeed="15.94" duration="135.00" routeLength="495.44" waitingTime="87.00" waitingCount="2" stopTime="0.00" timeLoss="106.49" rerouteNo="0" devices="tripinfo_3" vType="DEFAULT_VEHTYPE" speedFactor="1.19" vaporized=""/>
    <tripinfo id="16" depart="58.00" departLane="448266581#0_0" departPos="5.10" departSpeed="0.00" departDelay="0.40" arrival="149.00" arrivalLane="E1_1" arrivalPos="103.00" arrivalSpeed="13.39" duration="91.00" routeLength="448.81" waitingTime="42.00" waitingCount="1" stopTime="0.00" timeLoss="59.17" rerouteNo="0" devices="tripinfo_16" vType="DEFAULT_VEHTYPE" speedFactor="1.01" vaporized=""/>
    <tripinfo id="4" depart="15.00" departLane="232079775#2_0" departPos="5.10" departSpeed="0.00" departDelay="0.60" arrival="150.00" arrivalLane="119238380#0_0" arrivalPos="135.86" arrivalSpeed="13.79" duration="135.00" routeLength="467.31" waitingTime="73.00" waitingCount="3" stopTime="0.00" timeLoss="100.02" rerouteNo="0" devices="tripinfo_4" vType="DEFAULT_VEHTYPE" speedFactor="1.00" vaporized=""/>
    <tripinfo id="13" depart="47.00" departLane="-778823268#1_0" departPos="5.10" departSpeed="0.00" departDelay="0.20" arrival="151.00" arrivalLane="119238380#0_0" arrivalPos="135.86" arrivalSpeed="14.72" duration="104.00" routeLength="461.48" waitingTime="54.00" waitingCount="2" stopTime="0.00" timeLoss="73.71" rerouteNo="0" devices="tripinfo_13" vType="DEFAULT_VEHTYPE" speedFactor="1.11" vaporized=""/>
    <tripinfo id="9" depart="33.00" departLane="668307639#0_0" departPos="5.10" departSpeed="0.00" departDelay="0.60" arrival="154.00" arrivalLane="119238380#0_0" arrivalPos="135.86" arrivalSpeed="13.21" duration="121.00" routeLength="495.44" waitingTime="65.00" waitingCount="2" stopTime="0.00" timeLoss="85.28" rerouteNo="0" devices="tripinfo_9" vType="DEFAULT_VEHTYPE" speedFactor="0.95" vaporized=""/>
    <tripinfo id="6" depart="22.00" departLane="-778823268#1_0" departPos="5.10" departSpeed="0.00" departDelay="0.40" arrival="155.00" arrivalLane="119238385#0_0" arrivalPos="144.87" arrivalSpeed="11.35" duration="133.00" routeLength="522.97" waitingTime="71.00" waitingCount="2" stopTime="0.00" timeLoss="85.38" rerouteNo="0" devices="tripinfo_6" vType="DEFAULT_VEHTYPE" speedFactor="0.82" vaporized=""/>
    <tripinfo id="26" depart="94.00" departLane="232079775#2_0" departPos="5.10" departSpeed="0.00" departDelay="0.40" arrival="156.00" arrivalLane="E1_1" arrivalPos="103.00" arrivalSpeed="12.38" duration="62.00" routeLength="382.90" waitingTime="12.00" waitingCount="1" stopTime="0.00" timeLoss="30.87" rerouteNo="0" devices="tripinfo_26" vType="DEFAULT_VEHTYPE" speedFactor="0.93" vaporized=""/>
    <tripinfo id="34" depart="123.00" departLane="232079775#2_0" departPos="5.10" departSpeed="0.00" departDelay="0.60" arrival="156.00" arrivalLane="119238385#0_0" arrivalPos="144.87" arrivalSpeed="12.76" duration="33.00" routeLength="347.78" waitingTime="0.00" waitingCount="0" stopTime="0.00" timeLoss="7.63" rerouteNo="0" devices="tripinfo_34" vType="DEFAULT_VEHTYPE" speedFactor="0.99" vaporized=""/>
    <tripinfo id="21" depart="76.00" departLane="-778823268#1_0" departPos="5.10" departSpeed="0.00" departDelay="0.40" arrival="160.00" arrivalLane="119238385#0_0" arrivalPos="144.87" arrivalSpeed="14.65" duration="84.00" routeLength="522.97" waitingTime="29.00" waitingCount="2" stopTime="0.00" timeLoss="47.53" rerouteNo="0" devices="tripinfo_21" vType="DEFAULT_VEHTYPE" speedFactor="1.06" vaporized=""/>
    <tripinfo id="22" depart="80.00" departLane="-778823268#1_0" departPos="5.10" departSpeed="0.00" departDelay="0.80" arrival="163.00" arrivalLane="119238385#0_0" arrivalPos="144.87" arrivalSpeed="14.43" duration="83.00" routeLength="522.97" waitingTime="25.00" waitingCount="2" stopTime="0.00" timeLoss="48.50" rerouteNo="0" devices="tripinfo_22" vType="DEFAULT_VEHTYPE" speedFactor="1.11" vaporized=""/>
    <tripinfo id="35" depart="126.00" departLane="-778823268#1_0" departPos="5.10" departSpeed="0.00" departDelay="0.00" arrival="165.00" arrivalLane="E1_0" arrivalPos="103.00" arrivalSpeed="12.01" duration="39.00" routeLength="369.88" waitingTime="0.00" waitingCount="0" stopTime="0.00" timeLoss="7.88" rerouteNo="0" devices="tripinfo_35" vType="DEFAULT_VEHTYPE" speedFactor="0.89" vaporized=""/>
    <tripinfo id="29" depart="105.00" departLane="-778823268#1_0" departPos="5.10" departSpeed="0.00" departDelay="0.60" arrival="166.00" arrivalLane="44499684#3_0" arrivalPos="84.04" arrivalSpeed="14.69" duration="61.00" routeLength="453.00" waitingTime="8.00" waitingCount="2" stopTime="0.00" timeLoss="27.60" rerouteNo="0" devices="tripinfo_29" vType="DEFAULT_VEHTYPE" speedFactor="0.94" vaporized=""/>
    <tripinfo id="24" depart="87.00" departLane="448266581#0_0" departPos="5.10" departSpeed="0.00" departDelay="0.60" arrival="168.00" arrivalLane="44499684#3_0" arrivalPos="84.04" arrivalSpeed="15.74" duration="81.00" routeLength="508.78" waitingTime="28.00" waitingCount="2" stopTime="0.00" timeLoss="46.97" rerouteNo="0" devices="tripinfo_24" vType="DEFAULT_VEHTYPE" speedFactor="1.01" vaporized=""/>
    <tripinfo id="28" depart="101.00" departLane="-778823268#1_0" departPos="5.10" departSpeed="0.00" departDelay="0.20" arrival="170.00" arrivalLane="778823268#0_0" arrivalPos="238.22" arrivalSpeed="13.69" duration="69.00" routeLength="655.26" waitingTime="6.00" waitingCount="1" stopTime="0.00" timeLoss="21.17" rerouteNo="0" devices="tripinfo_28" vType="DEFAULT_VEHTYPE" speedFactor="1.04" vaporized=""/>
    <tripinfo id="14" depart="51.00" departLane="668307639#0_0" departPos="5.10" departSpeed="0.00" departDelay="0.60" arrival="172.00" arrivalLane="668307633#3_2" arrivalPos="112.63" arrivalSpeed="17.65" duration="121.00" routeLength="623.09" waitingTime="58.00" waitingCount="2" stopTime="0.00" timeLoss="83.29" rerouteNo="0" devices="tripinfo_14" vType="DEFAULT_VEHTYPE" speedFactor="1.08" vaporized=""/>
    <tripinfo id="8" depart="29.00" departLane="-778823268#1_0" departPos="5.10" departSpeed="0.00" departDelay="0.20" arrival="173.00" arrivalLane="668307633#3_1" arrivalPos="112.63" arrivalSpeed="14.52" duration="144.00" routeLength="595.69" waitingTime="80.00" waitingCount="3" stopTime="0.00" timeLoss="100.28" rerouteNo="0" devices="tripinfo_8" vType="DEFAULT_VEHTYPE" speedFactor="0.93" vaporized=""/>
    <tripinfo id="5" depart="18.00" departLane="-778823268#1_0" departPos="5.10" departSpeed="0.00" departDelay="0.00" arrival="174.00" arrivalLane="668307633#3_0" arrivalPos="112.63" arrivalSpeed="14.51" duration="156.00" routeLength="595.69" waitingTime="96.00" waitingCount="2" stopTime="0.00" timeLoss="111.06" rerouteNo="0" devices="tripinfo_5" vType="DEFAULT_VEHTYPE" speedFactor="0.91" vaporized=""/>
    <tripinfo id="18" depart="65.00" departLane="668307639#0_0" departPos="5.10" departSpeed="0.00" departDelay="0.20" arrival="175.00" arrivalLane="668307633#3_1" arrivalPos="112.63" arrivalSpeed="16.20" duration="110.00" routeLength="623.09" waitingTime="50.00" waitingCount="2" stopTime="0.00" timeLoss="71.23" rerouteNo="0" devices="tripinfo_18" vType="DEFAULT_VEHTYPE" speedFactor="1.04" vaporized=""/>
    <tripinfo id="32" depart="116.00" departLane="668307639#0_0" departPos="5.10" departSpeed="0.00" departDelay="0.80" arrival="175.00" arrivalLane="778823268#0_0" arrivalPos="238.22" arrivalSpeed="13.85" duration="59.00" routeLength="503.37" waitingTime="16.00" waitingCount="1" stopTime="0.00" timeLoss="25.69" rerouteNo="0" devices="tripinfo_32" vType="DEFAULT_VEHTYPE" speedFactor="1.05" vaporized=""/>
    <tripinfo id="38" depart="137.00" departLane="668307639#0_0" departPos="5.10" departSpeed="0.00" departDelay="0.20" arrival="175.00" arrivalLane="44499684#3_0" arrivalPos="84.04" arrivalSpeed="14.42" duration="38.00" routeLength="485.82" waitingTime="0.00" waitingCount="0" stopTime="0.00" timeLoss="4.11" rerouteNo="0" devices="tripinfo_38" vType="DEFAULT_VEHTYPE" speedFactor="0.90" vaporized=""/>
    <tripinfo id="40" depart="144.00" departLane="448266581#0_0" departPos="5.10" departSpeed="0.00" departDelay="0.00" arrival="177.00" arrivalLane="119238385#0_0" arrivalPos="144.87" arrivalSpeed="14.91" duration="33.00" routeLength="416.20" waitingTime="0.00" waitingCount="0" stopTime="0.00" timeLoss="5.62" rerouteNo="0" devices="tripinfo_40" vType="DEFAULT_VEHTYPE" speedFactor="1.09" vaporized=""/>
    <tripinfo id="39" depart="141.00" departLane="232079775#2_0" departPos="5.10" departSpeed="0.00" departDelay="0.60" arrival="187.00" arrivalLane="119238385#0_0" arrivalPos="144.87" arrivalSpeed="13.94" duration="46.00" routeLength="347.78" waitingTime="11.00" waitingCount="1" stopTime="0.00" timeLoss="21.11" rerouteNo="0" devices="tripinfo_39" vType="DEFAULT_VEHTYPE" speedFactor="1.01" vaporized=""/>
    <tripinfo id="42" depart="152.00" departLane="232079775#2_0" departPos="5.10" departSpeed="0.00" departDelay="0.80" arrival="189.00" arrivalLane="119238385#0_0" arrivalPos="144.87" arrivalSpeed="14.79" duration="37.00" routeLength="347.78" waitingTime="3.00" waitingCount="1" stopTime="0.00" timeLoss="14.59" rerouteNo="0" devices="tripinfo_42" vType="DEFAULT_VEHTYPE" speedFactor="1.13" vaporized=""/>
    <tripinfo id="46" depart="166.00" departLane="668307639#0_0" departPos="5.10" departSpeed="0.00" departDelay="0.40" arrival="199.00" arrivalLane="44499684#3_0" arrivalPos="84.04" arrivalSpeed="17.90" duration="33.00" routeLength="485.82" waitingTime="0.00" waitingCount="0" stopTime="0.00" timeLoss="5.14" rerouteNo="0" devices="tripinfo_46" vType="DEFAULT_VEHTYPE" speedFactor="1.09" vaporized=""/>
    <tripinfo id="52" depart="188.00" departLane="232079775#2_0" departPos="5.10" departSpeed="0.00" departDelay="0.80" arrival="226.00" arrivalLane="668307633#3_0" arrivalPos="112.63" arrivalSpeed="18.11" duration="38.00" routeLength="455.41" waitingTime="0.00" waitingCount="0" stopTime="0.00" timeLoss="9.98" rerouteNo="0" devices="tripinfo_52" vType="DEFAULT_VEHTYPE" speedFactor="1.09" vaporized=""/>
    <tripinfo id="51" depart="184.00" departLane="448266581#0_0" departPos="5.10" departSpeed="0.00" departDelay="0.40" arrival="227.00" arrivalLane="668307633#3_1" arrivalPos="112.63" arrivalSpeed="18.61" duration="43.00" routeLength="489.91" waitingTime="5.00" waitingCount="1" stopTime="0.00" timeLoss="16.64" rerouteNo="0" devices="tripinfo_51" vType="DEFAULT_VEHTYPE" speedFactor="1.15" vaporized=""/>
    <tripinfo id="56" depart="202.00" departLane="448266581#0_0" departPos="5.10" departSpeed="0.00" departDelay="0.40" arrival="236.00" arrivalLane="119238385#0_0" arrivalPos="144.87" arrivalSpeed="13.68" duration="34.00" routeLength="416.20" waitingTime="0.00" waitingCount="0" stopTime="0.00" timeLoss="6.79" rerouteNo="0" devices="tripinfo_56" vType="DEFAULT_VEHTYPE" speedFactor="1.06" vaporized=""/>
    <tripinfo id="59" depart="213.00" departLane="448266581#0_0" departPos="5.10" departSpeed="0.00" departDelay="0.60" arrival="243.00" arrivalLane="119238380#0_0" arrivalPos="135.86" arrivalSpeed="14.02" duration="30.00" routeLength="354.71" waitingTime="0.00" waitingCount="0" stopTime="0.00" timeLoss="6.43" rerouteNo="0" devices="tripinfo_59" vType="DEFAULT_VEHTYPE" speedFactor="1.03" vaporized=""/>
    <tripinfo id="58" depart="209.00" departLane="232079775#2_0" departPos="5.10" departSpeed="0.00" departDelay="0.20" arrival="256.00" arrivalLane="668307633#3_0" arrivalPos="112.63" arrivalSpeed="12.93" duration="47.00" routeLength="455.41" waitingTime="0.00" waitingCount="0" stopTime="0.00" timeLoss="8.43" rerouteNo="0" devices="tripinfo_58" vType="DEFAULT_VEHTYPE" speedFactor="0.81" vaporized=""/>
    <tripinfo id="64" depart="231.00" departLane="668307639#0_0" departPos="5.10" departSpeed="0.00" departDelay="0.60" arrival="276.00" arrivalLane="778823268#0_0" arrivalPos="238.22" arrivalSpeed="13.25" duration="45.00" routeLength="503.37" waitingTime="0.00" waitingCount="0" stopTime="0.00" timeLoss="10.98" rerouteNo="0" devices="tripinfo_64" vType="DEFAULT_VEHTYPE" speedFactor="1.03" vaporized=""/>
    <tripinfo id="70" depart="252.00" departLane="232079775#2_0" departPos="5.10" departSpeed="0.00" departDelay="0.00" arrival="288.00" arrivalLane="668307633#3_0" arrivalPos="112.63" arrivalSpeed="19.35" duration="36.00" routeLength="455.41" waitingTime="0.00" waitingCount="0" stopTime="0.00" timeLoss="9.17" rerouteNo="0" devices="tripinfo_70" vType="DEFAULT_VEHTYPE" speedFactor="1.17" vaporized=""/>
    <tripinfo id="72" depart="260.00" departLane="232079775#2_0" departPos="5.10" departSpeed="0.00" departDelay="0.80" arrival="291.00" arrivalLane="119238385#0_0" arrivalPos="144.87" arrivalSpeed="13.73" duration="31.00" routeLength="347.78" waitingTime="0.00" waitingCount="0" stopTime="0.00" timeLoss="6.46" rerouteNo="0" devices="tripinfo_72" vType="DEFAULT_VEHTYPE" speedFactor="1.06" vaporized=""/>
    <tripinfo id="33" depart="119.00" departLane="-778823268#1_0" departPos="5.10" departSpeed="0.00" departDelay="0.20" arrival="296.00" arrivalLane="119238380#0_0" arrivalPos="135.86" arrivalSpeed="14.69" duration="177.00" routeLength="461.48" waitingTime="122.00" waitingCount="1" stopTime="0.00" timeLoss="145.65" rerouteNo="0" devices="tripinfo_33" vType="DEFAULT_VEHTYPE" speedFactor="1.08" vaporized=""/>
    <tripinfo id="11" depart="40.00" departLane="232079775#2_0" departPos="5.10" departSpeed="0.00" departDelay="0.40" arrival="299.00" arrivalLane="119238380#0_0" arrivalPos="135.86" arrivalSpeed="12.35" duration="259.00" routeLength="466.40" waitingTime="201.00" waitingCount="4" stopTime="0.00" timeLoss="224.03" rerouteNo="0" devices="tripinfo_11" vType="DEFAULT_VEHTYPE" speedFactor="0.98" vaporized=""/>
    <tripinfo id="23" depart="83.00" departLane="-778823268#1_0" departPos="5.10" departSpeed="0.00" departDelay="0.20" arrival="300.00" arrivalLane="119238385#0_0" arrivalPos="144.87" arrivalSpeed="14.08" duration="217.00" routeLength="522.97" waitingTime="147.00" waitingCount="4" stopTime="0.00" timeLoss="179.65" rerouteNo="0" devices="tripinfo_23" vType="DEFAULT_VEHTYPE" speedFactor="1.05" vaporized=""/>
    <tripinfo id="47" depart="170.00" departLane="-778823268#1_0" departPos="5.10" departSpeed="0.00" departDelay="0.80" arrival="302.00" arrivalLane="44499684#3_0" arrivalPos="84.04" arrivalSpeed="17.41" duration="132.00" routeLength="453.00" waitingTime="88.00" waitingCount="1" stopTime="0.00" timeLoss="102.37" rerouteNo="0" devices="tripinfo_47" vType="DEFAULT_VEHTYPE" speedFactor="1.05" vaporized=""/>
    <tripinfo id="19" depart="69.00" departLane="668307639#0_0" departPos="5.10" departSpeed="0.00" departDelay="0.60" arrival="303.00" arrivalLane="668307633#3_0" arrivalPos="112.63" arrivalSpeed="18.58" duration="234.00" routeLength="625.14" waitingTime="176.00" waitingCount="2" stopTime="0.00" timeLoss="199.00" rerouteNo="0" devices="tripinfo_19" vType="DEFAULT_VEHTYPE" speedFactor="1.16" vaporized=""/>
    <tripinfo id="44" depart="159.00" departLane="-778823268#1_0" departPos="5.10" departSpeed="0.00" departDelay="0.60" arrival="303.00" arrivalLane="119238380#0_0" arrivalPos="135.86" arrivalSpeed="11.30" duration="144.00" routeLength="461.48" waitingTime="96.00" waitingCount="1" stopTime="0.00" timeLoss="105.54" rerouteNo="0" devices="tripinfo_44" vType="DEFAULT_VEHTYPE" speedFactor="0.88" vaporized=""/>
    <tripinfo id="30" depart="108.00" departLane="668307639#0_0" departPos="5.10" departSpeed="0.00" departDelay="0.00" arrival="304.00" arrivalLane="668307633#3_1" arrivalPos="112.63" arrivalSpeed="14.28" duration="196.00" routeLength="623.09" waitingTime="132.00" waitingCount="3" stopTime="0.00" timeLoss="150.89" rerouteNo="0" devices="tripinfo_30" vType="DEFAULT_VEHTYPE" speedFactor="0.90" vaporized=""/>
    <tripinfo id="53" depart="191.00" departLane="-778823268#1_0" departPos="5.10" departSpeed="0.00" departDelay="0.20" arrival="304.00" arrivalLane="44499684#3_0" arrivalPos="84.04" arrivalSpeed="18.92" duration="113.00" routeLength="453.00" waitingTime="71.00" waitingCount="1" stopTime="0.00" timeLoss="85.89" rerouteNo="0" devices="tripinfo_53" vType="DEFAULT_VEHTYPE" speedFactor="1.15" vaporized=""/>
    <tripinfo id="63" depart="227.00" departLane="-778823268#1_0" departPos="5.10" departSpeed="0.00" departDelay="0.20" arrival="305.00" arrivalLane="E1_0" arrivalPos="103.00" arrivalSpeed="11.77" duration="78.00" routeLength="369.88" waitingTime="34.00" waitingCount="1" stopTime="0.00" timeLoss="48.64" rerouteNo="0" devices="tripinfo_63" vType="DEFAULT_VEHTYPE" speedFactor="0.92" vaporized=""/>
    <tripinfo id="45" depart="162.00" departLane="-778823268#1_0" departPos="5.10" departSpeed="0.00" departDelay="0.00" arrival="306.00" arrivalLane="668307633#3_1" arrivalPos="112.63" arrivalSpeed="18.03" duration="144.00" routeLength="595.69" waitingTime="95.00" waitingCount="1" stopTime="0.00" timeLoss="107.84" rerouteNo="0" devices="tripinfo_45" vType="DEFAULT_VEHTYPE" speedFactor="1.14" vaporized=""/>
    <tripinfo id="36" depart="130.00" departLane="668307639#0_0" departPos="5.10" departSpeed="0.00" departDelay="0.40" arrival="308.00" arrivalLane="119238385#0_0" arrivalPos="144.87" arrivalSpeed="14.99" duration="178.00" routeLength="559.31" waitingTime="124.00" waitingCount="2" stopTime="0.00" timeLoss="142.04" rerouteNo="0" devices="tripinfo_36" vType="DEFAULT_VEHTYPE" speedFactor="1.08" vaporized=""/>
    <tripinfo id="62" depart="224.00" departLane="-778823268#1_0" departPos="5.10" departSpeed="0.00" departDelay="0.80" arrival="311.00" arrivalLane="119238385#0_0" arrivalPos="144.87" arrivalSpeed="16.41" duration="87.00" routeLength="522.97" waitingTime="39.00" waitingCount="1" stopTime="0.00" timeLoss="54.74" rerouteNo="0" devices="tripinfo_62" vType="DEFAULT_VEHTYPE" speedFactor="1.20" vaporized=""/>
    <tripinfo id="67" depart="242.00" departLane="-778823268#1_0" departPos="5.10" departSpeed="0.00" departDelay="0.80" arrival="312.00" arrivalLane="44499684#3_0" arrivalPos="84.04" arrivalSpeed="16.62" duration="70.00" routeLength="453.00" waitingTime="23.00" waitingCount="1" stopTime="0.00" timeLoss="38.60" rerouteNo="0" devices="tripinfo_67" vType="DEFAULT_VEHTYPE" speedFactor="1.00" vaporized=""/>
    <tripinfo id="49" depart="177.00" departLane="668307639#0_0" departPos="5.10" departSpeed="0.00" departDelay="0.60" arrival="320.00" arrivalLane="E1_1" arrivalPos="103.00" arrivalSpeed="16.62" duration="143.00" routeLength="411.03" waitingTime="101.00" waitingCount="3" stopTime="0.00" timeLoss="119.93" rerouteNo="0" devices="tripinfo_49" vType="DEFAULT_VEHTYPE" speedFactor="1.20" vaporized=""/>
    <tripinfo id="81" depart="292.00" departLane="-778823268#1_0" departPos="5.10" departSpeed="0.00" departDelay="0.40" arrival="325.00" arrivalLane="E1_0" arrivalPos="103.00" arrivalSpeed="13.47" duration="33.00" routeLength="369.88" waitingTime="0.00" waitingCount="0" stopTime="0.00" timeLoss="5.37" rerouteNo="0" devices="tripinfo_81" vType="DEFAULT_VEHTYPE" speedFactor="0.98" vaporized=""/>
    <tripinfo id="78" depart="281.00" departLane="232079775#2_0" departPos="5.10" departSpeed="0.00" departDelay="0.20" arrival="327.00" arrivalLane="668307633#3_1" arrivalPos="112.63" arrivalSpeed="16.56" duration="46.00" routeLength="460.73" waitingTime="3.00" waitingCount="1" stopTime="0.00" timeLoss="16.60" rerouteNo="0" devices="tripinfo_78" vType="DEFAULT_VEHTYPE" speedFactor="1.06" vaporized=""/>
    <tripinfo id="76" depart="274.00" departLane="232079775#2_0" departPos="5.10" departSpeed="0.00" departDelay="0.40" arrival="328.00" arrivalLane="668307633#3_0" arrivalPos="112.63" arrivalSpeed="14.42" duration="54.00" routeLength="455.41" waitingTime="7.00" waitingCount="1" stopTime="0.00" timeLoss="19.81" rerouteNo="0" devices="tripinfo_76" vType="DEFAULT_VEHTYPE" speedFactor="0.91" vaporized=""/>
    <tripinfo id="37" depart="134.00" departLane="448266581#0_0" departPos="5.10" departSpeed="0.00" departDelay="0.80" arrival="343.00" arrivalLane="44499684#3_1" arrivalPos="84.04" arrivalSpeed="16.27" duration="209.00" routeLength="513.77" waitingTime="152.00" waitingCount="3" stopTime="0.00" timeLoss="173.24" rerouteNo="0" devices="tripinfo_37" vType="DEFAULT_VEHTYPE" speedFactor="0.98" vaporized=""/>
    <tripinfo id="31" depart="112.00" departLane="448266581#0_0" departPos="5.10" departSpeed="0.00" departDelay="0.40" arrival="348.00" arrivalLane="778823268#0_0" arrivalPos="238.22" arrivalSpeed="13.92" duration="236.00" routeLength="546.01" waitingTime="179.00" waitingCount="2" stopTime="0.00" timeLoss="198.25" rerouteNo="0" devices="tripinfo_31" vType="DEFAULT_VEHTYPE" speedFactor="1.04" vaporized=""/>
    <tripinfo id="95" depart="342.00" departLane="232079775#2_0" departPos="5.10" departSpeed="0.00" departDelay="0.00" arrival="373.00" arrivalLane="119238385#0_0" arrivalPos="144.87" arrivalSpeed="14.08" duration="31.00" routeLength="347.78" waitingTime="0.00" waitingCount="0" stopTime="0.00" timeLoss="6.13" rerouteNo="0" devices="tripinfo_95" vType="DEFAULT_VEHTYPE" speedFactor="1.04" vaporized=""/>
    <tripinfo id="88" depart="317.00" departLane="-778823268#1_0" departPos="5.10" departSpeed="0.00" departDelay="0.20" arrival="380.00" arrivalLane="44499684#3_0" arrivalPos="84.04" arrivalSpeed="14.87" duration="63.00" routeLength="453.00" waitingTime="21.00" waitingCount="1" stopTime="0.00" timeLoss="30.89" rerouteNo="0" devices="tripinfo_88" vType="DEFAULT_VEHTYPE" speedFactor="0.97" vaporized=""/>
    <tripinfo id="98" depart="353.00" departLane="448266581#0_0" departPos="5.10" departSpeed="0.00" departDelay="0.20" arrival="383.00" arrivalLane="119238380#0_0" arrivalPos="135.86" arrivalSpeed="14.45" duration="30.00" routeLength="354.71" waitingTime="0.00" waitingCount="0" stopTime="0.00" timeLoss="7.11" rerouteNo="0" devices="tripinfo_98" vType="DEFAULT_VEHTYPE" speedFactor="1.10" vaporized=""/>
    <tripinfo id="96" depart="346.00" departLane="-778823268#1_0" departPos="5.10" departSpeed="0.00" departDelay="0.40" arrival="384.00" arrivalLane="E1_0" arrivalPos="103.00" arrivalSpeed="13.33" duration="38.00" routeLength="369.88" waitingTime="0.00" waitingCount="0" stopTime="0.00" timeLoss="9.82" rerouteNo="0" devices="tripinfo_96" vType="DEFAULT_VEHTYPE" speedFactor="0.98" vaporized=""/>
    <tripinfo id="94" depart="339.00" departLane="-778823268#1_0" departPos="5.10" departSpeed="0.00" departDelay="0.60" arrival="387.00" arrivalLane="44499684#3_0" arrivalPos="84.04" arrivalSpeed="14.64" duration="48.00" routeLength="453.00" waitingTime="1.00" waitingCount="1" stopTime="0.00" timeLoss="14.24" rerouteNo="0" devices="tripinfo_94" vType="DEFAULT_VEHTYPE" speedFactor="0.93" vaporized=""/>
    <tripinfo id="102" depart="368.00" departLane="232079775#2_0" departPos="5.10" departSpeed="0.00" departDelay="0.80" arrival="399.00" arrivalLane="119238385#0_0" arrivalPos="144.87" arrivalSpeed="13.80" duration="31.00" routeLength="347.78" waitingTime="0.00" waitingCount="0" stopTime="0.00" timeLoss="5.73" rerouteNo="0" devices="tripinfo_102" vType="DEFAULT_VEHTYPE" speedFactor="1.00" vaporized=""/>
    <tripinfo id="43" depart="155.00" departLane="668307639#0_0" departPos="5.10" departSpeed="0.00" departDelay="0.20" arrival="447.00" arrivalLane="668307633#3_0" arrivalPos="112.63" arrivalSpeed="15.67" duration="292.00" routeLength="623.09" waitingTime="231.00" waitingCount="3" stopTime="0.00" timeLoss="250.97" rerouteNo="0" devices="tripinfo_43" vType="DEFAULT_VEHTYPE" speedFactor="0.98" vaporized=""/>