<?xml version="1.0" encoding="UTF-8"?>

<!-- generated on 2024-08-31 19:38:59 by Eclipse SUMO sumo Version 1.20.0
<configuration xmlns:xsi="http://www.w3.org/2001/XMLSchema-instance" xsi:noNamespaceSchemaLocation="http://sumo.dlr.de/xsd/sumoConfiguration.xsd">

    <input>
        <net-file value="c:\self\School\Master\Disertation\code\RESCO\resco_benchmark\environments/romana/osm.net.xml.gz"/>
        <route-files value="c:\self\School\Master\Disertation\code\RESCO\resco_benchmark\environments/romana/osm.passenger.trips.xml"/>
        <additional-files value="c:\self\School\Master\Disertation\code\RESCO\resco_benchmark\environments/romana/osm.poly.xml.gz"/>
    </input>

    <output>
        <tripinfo-output value="C:\self\School\Master\Disertation\code\RESCO\results\IPPO-tr0-romana-0-drq_norm-wait_norm\tripinfo_55.xml"/>
        <tripinfo-output.write-unfinished value="true"/>
    </output>

    <processing>
        <ignore-route-errors value="true"/>
        <time-to-teleport value="-1"/>
    </processing>

    <routing>
        <device.rerouting.adaptation-steps value="18"/>
        <device.rerouting.adaptation-interval value="10"/>
    </routing>

    <report>
        <verbose value="true"/>
        <no-warnings value="True"/>
        <duration-log.statistics value="true"/>
        <no-step-log value="True"/>
    </report>

    <traci_server>
        <remote-port value="59896"/>
    </traci_server>

    <random_number>
        <random value="true"/>
    </random_number>

    <gui_only>
        <gui-settings-file value="c:\self\School\Master\Disertation\code\RESCO\resco_benchmark\environments/romana/osm.view.xml"/>
    </gui_only>

</configuration>
-->

<tripinfos xmlns:xsi="http://www.w3.org/2001/XMLSchema-instance" xsi:noNamespaceSchemaLocation="http://sumo.dlr.de/xsd/tripinfo_file.xsd">
    <tripinfo id="1" depart="4.00" departLane="232079775#2_0" departPos="5.10" departSpeed="0.00" departDelay="0.40" arrival="32.00" arrivalLane="119238385#0_0" arrivalPos="144.87" arrivalSpeed="15.87" duration="28.00" routeLength="347.78" waitingTime="0.00" waitingCount="0" stopTime="0.00" timeLoss="5.78" rerouteNo="0" devices="tripinfo_1" vType="DEFAULT_VEHTYPE" speedFactor="1.16" vaporized=""/>
    <tripinfo id="0" depart="0.00" departLane="448266581#0_0" departPos="5.10" departSpeed="0.00" departDelay="0.00" arrival="46.00" arrivalLane="119238380#0_0" arrivalPos="135.86" arrivalSpeed="12.92" duration="46.00" routeLength="354.71" waitingTime="10.00" waitingCount="1" stopTime="0.00" timeLoss="20.02" rerouteNo="0" devices="tripinfo_0" vType="DEFAULT_VEHTYPE" speedFactor="0.94" vaporized=""/>
    <tripinfo id="7" depart="26.00" departLane="448266581#0_0" departPos="5.10" departSpeed="0.00" departDelay="0.80" arrival="74.00" arrivalLane="668307633#3_0" arrivalPos="112.63" arrivalSpeed="14.21" duration="48.00" routeLength="489.91" waitingTime="5.00" waitingCount="1" stopTime="0.00" timeLoss="14.21" rerouteNo="0" devices="tripinfo_7" vType="DEFAULT_VEHTYPE" speedFactor="0.88" vaporized=""/>
    <tripinfo id="12" depart="44.00" departLane="668307639#0_0" departPos="5.10" departSpeed="0.00" departDelay="0.80" arrival="76.00" arrivalLane="44499684#3_0" arrivalPos="84.04" arrivalSpeed="18.98" duration="32.00" routeLength="485.82" waitingTime="0.00" waitingCount="0" stopTime="0.00" timeLoss="5.44" rerouteNo="0" devices="tripinfo_12" vType="DEFAULT_VEHTYPE" speedFactor="1.16" vaporized=""/>
    <tripinfo id="2" depart="8.00" departLane="448266581#0_0" departPos="5.10" departSpeed="0.00" departDelay="0.80" arrival="78.00" arrivalLane="778823268#0_0" arrivalPos="238.22" arrivalSpeed="11.01" duration="70.00" routeLength="547.37" waitingTime="6.00" waitingCount="2" stopTime="0.00" timeLoss="22.12" rerouteNo="0" devices="tripinfo_2" vType="DEFAULT_VEHTYPE" speedFactor="0.83" vaporized=""/>
    <tripinfo id="10" depart="36.00" departLane="668307639#0_0" departPos="5.10" departSpeed="0.00" departDelay="0.00" arrival="82.00" arrivalLane="778823268#0_0" arrivalPos="238.22" arrivalSpeed="11.98" duration="46.00" routeLength="503.37" waitingTime="0.00" waitingCount="0" stopTime="0.00" timeLoss="9.33" rerouteNo="0" devices="tripinfo_10" vType="DEFAULT_VEHTYPE" speedFactor="0.93" vaporized=""/>
    <tripinfo id="15" depart="54.00" departLane="668307639#0_0" departPos="5.10" departSpeed="0.00" departDelay="0.00" arrival="96.00" arrivalLane="778823268#0_0" arrivalPos="238.22" arrivalSpeed="13.37" duration="42.00" routeLength="503.37" waitingTime="0.00" waitingCount="0" stopTime="0.00" timeLoss="8.34" rerouteNo="0" devices="tripinfo_15" vType="DEFAULT_VEHTYPE" speedFactor="1.03" vaporized=""/>
    <tripinfo id="17" depart="62.00" departLane="232079775#2_0" departPos="5.10" departSpeed="0.00" departDelay="0.80" arrival="104.00" arrivalLane="668307633#3_0" arrivalPos="112.63" arrivalSpeed="13.79" duration="42.00" routeLength="455.41" waitingTime="0.00" waitingCount="0" stopTime="0.00" timeLoss="7.38" rerouteNo="0" devices="tripinfo_17" vType="DEFAULT_VEHTYPE" speedFactor="0.88" vaporized=""/>
    <tripinfo id="20" depart="72.00" departLane="448266581#0_0" departPos="5.10" departSpeed="0.00" departDelay="0.00" arrival="107.00" arrivalLane="119238380#0_0" arrivalPos="135.86" arrivalSpeed="10.98" duration="35.00" routeLength="354.71" waitingTime="0.00" waitingCount="0" stopTime="0.00" timeLoss="5.60" rerouteNo="0" devices="tripinfo_20" vType="DEFAULT_VEHTYPE" speedFactor="0.83" vaporized=""/>
    <tripinfo id="3" depart="11.00" departLane="668307639#0_0" departPos="5.10" departSpeed="0.00" departDelay="0.20" arrival="121.00" arrivalLane="119238380#0_0" arrivalPos="135.86" arrivalSpeed="11.95" duration="110.00" routeLength="495.44" waitingTime="61.00" waitingCount="1" stopTime="0.00" timeLoss="73.01" rerouteNo="0" devices="tripinfo_3" vType="DEFAULT_VEHTYPE" speedFactor="0.93" vaporized=""/>
    <tripinfo id="25" depart="90.00" departLane="232079775#2_0" departPos="5.10" departSpeed="0.00" departDelay="0.00" arrival="121.00" arrivalLane="119238385#0_0" arrivalPos="144.87" arrivalSpeed="13.90" duration="31.00" routeLength="347.78" waitingTime="0.00" waitingCount="0" stopTime="0.00" timeLoss="5.97" rerouteNo="0" devices="tripinfo_25" vType="DEFAULT_VEHTYPE" speedFactor="1.02" vaporized=""/>
    <tripinfo id="4" depart="15.00" departLane="232079775#2_0" departPos="5.10" departSpeed="0.00" departDelay="0.60" arrival="126.00" arrivalLane="119238380#0_0" arrivalPos="135.86" arrivalSpeed="10.94" duration="111.00" routeLength="467.31" waitingTime="47.00" waitingCount="4" stopTime="0.00" timeLoss="71.06" rerouteNo="0" devices="tripinfo_4" vType="DEFAULT_VEHTYPE" speedFactor="0.85" vaporized=""/>
    <tripinfo id="6" depart="22.00" departLane="-778823268#1_0" departPos="5.10" departSpeed="0.00" departDelay="0.40" arrival="128.00" arrivalLane="119238385#0_0" arrivalPos="144.87" arrivalSpeed="12.61" duration="106.00" routeLength="522.97" waitingTime="52.00" waitingCount="1" stopTime="0.00" timeLoss="65.55" rerouteNo="0" devices="tripinfo_6" vType="DEFAULT_VEHTYPE" speedFactor="0.94" vaporized=""/>
    <tripinfo id="13" depart="47.00" departLane="-778823268#1_0" departPos="5.10" departSpeed="0.00" departDelay="0.20" arrival="128.00" arrivalLane="119238380#0_0" arrivalPos="135.86" arrivalSpeed="13.17" duration="81.00" routeLength="461.48" waitingTime="33.00" waitingCount="1" stopTime="0.00" timeLoss="47.61" rerouteNo="0" devices="tripinfo_13" vType="DEFAULT_VEHTYPE" speedFactor="1.02" vaporized=""/>
    <tripinfo id="21" depart="76.00" departLane="-778823268#1_0" departPos="5.10" departSpeed="0.00" departDelay="0.40" arrival="133.00" arrivalLane="119238385#0_0" arrivalPos="144.87" arrivalSpeed="13.01" duration="57.00" routeLength="522.97" waitingTime="5.00" waitingCount="1" stopTime="0.00" timeLoss="18.95" rerouteNo="0" devices="tripinfo_21" vType="DEFAULT_VEHTYPE" speedFactor="1.01" vaporized=""/>
    <tripinfo id="22" depart="80.00" departLane="-778823268#1_0" departPos="5.10" departSpeed="0.00" departDelay="0.80" arrival="135.00" arrivalLane="119238385#0_0" arrivalPos="144.87" arrivalSpeed="14.02" duration="55.00" routeLength="522.97" waitingTime="3.00" waitingCount="1" stopTime="0.00" timeLoss="18.66" rerouteNo="0" devices="tripinfo_22" vType="DEFAULT_VEHTYPE" speedFactor="1.08" vaporized=""/>
    <tripinfo id="23" depart="83.00" departLane="-778823268#1_0" departPos="5.10" departSpeed="0.00" departDelay="0.20" arrival="138.00" arrivalLane="119238385#0_0" arrivalPos="144.87" arrivalSpeed="13.79" duration="55.00" routeLength="522.97" waitingTime="0.00" waitingCount="0" stopTime="0.00" timeLoss="15.97" rerouteNo="0" devices="tripinfo_23" vType="DEFAULT_VEHTYPE" speedFactor="1.00" vaporized=""/>
    <tripinfo id="9" depart="33.00" departLane="668307639#0_0" departPos="5.10" departSpeed="0.00" departDelay="0.60" arrival="139.00" arrivalLane="119238380#0_0" arrivalPos="135.86" arrivalSpeed="11.45" duration="106.00" routeLength="495.44" waitingTime="53.00" waitingCount="1" stopTime="0.00" timeLoss="66.42" rerouteNo="0" devices="tripinfo_9" vType="DEFAULT_VEHTYPE" speedFactor="0.85" vaporized=""/>
    <tripinfo id="16" depart="58.00" departLane="448266581#0_0" departPos="5.10" departSpeed="0.00" departDelay="0.40" arrival="144.00" arrivalLane="E1_1" arrivalPos="103.00" arrivalSpeed="11.83" duration="86.00" routeLength="448.81" waitingTime="30.00" waitingCount="2" stopTime="0.00" timeLoss="49.03" rerouteNo="0" devices="tripinfo_16" vType="DEFAULT_VEHTYPE" speedFactor="0.87" vaporized=""/>
    <tripinfo id="29" depart="105.00" departLane="-778823268#1_0" departPos="5.10" departSpeed="0.00" departDelay="0.60" arrival="148.00" arrivalLane="44499684#3_0" arrivalPos="84.04" arrivalSpeed="14.11" duration="43.00" routeLength="453.00" waitingTime="0.00" waitingCount="0" stopTime="0.00" timeLoss="8.15" rerouteNo="0" devices="tripinfo_29" vType="DEFAULT_VEHTYPE" speedFactor="0.90" vaporized=""/>
    <tripinfo id="35" depart="126.00" departLane="-778823268#1_0" departPos="5.10" departSpeed="0.00" departDelay="0.00" arrival="155.00" arrivalLane="E1_0" arrivalPos="103.00" arrivalSpeed="15.45" duration="29.00" routeLength="369.88" waitingTime="0.00" waitingCount="0" stopTime="0.00" timeLoss="6.55" rerouteNo="0" devices="tripinfo_35" vType="DEFAULT_VEHTYPE" speedFactor="1.21" vaporized=""/>
    <tripinfo id="24" depart="87.00" departLane="448266581#0_0" departPos="5.10" departSpeed="0.00" departDelay="0.60" arrival="156.00" arrivalLane="44499684#3_2" arrivalPos="84.04" arrivalSpeed="17.76" duration="69.00" routeLength="508.78" waitingTime="23.00" waitingCount="1" stopTime="0.00" timeLoss="38.05" rerouteNo="0" devices="tripinfo_24" vType="DEFAULT_VEHTYPE" speedFactor="1.11" vaporized=""/>
    <tripinfo id="28" depart="101.00" departLane="-778823268#1_0" departPos="5.10" departSpeed="0.00" departDelay="0.20" arrival="157.00" arrivalLane="778823268#0_0" arrivalPos="238.22" arrivalSpeed="13.67" duration="56.00" routeLength="655.26" waitingTime="0.00" waitingCount="0" stopTime="0.00" timeLoss="8.23" rerouteNo="0" devices="tripinfo_28" vType="DEFAULT_VEHTYPE" speedFactor="1.03" vaporized=""/>
    <tripinfo id="34" depart="123.00" departLane="232079775#2_0" departPos="5.10" departSpeed="0.00" departDelay="0.60" arrival="159.00" arrivalLane="119238385#0_0" arrivalPos="144.87" arrivalSpeed="12.61" duration="36.00" routeLength="347.78" waitingTime="0.00" waitingCount="0" stopTime="0.00" timeLoss="10.16" rerouteNo="0" devices="tripinfo_34" vType="DEFAULT_VEHTYPE" speedFactor="0.98" vaporized=""/>
    <tripinfo id="26" depart="94.00" departLane="232079775#2_0" departPos="5.10" departSpeed="0.00" departDelay="0.40" arrival="163.00" arrivalLane="E1_1" arrivalPos="103.00" arrivalSpeed="12.63" duration="69.00" routeLength="382.90" waitingTime="28.00" waitingCount="1" stopTime="0.00" timeLoss="38.37" rerouteNo="0" devices="tripinfo_26" vType="DEFAULT_VEHTYPE" speedFactor="0.93" vaporized=""/>
    <tripinfo id="31" depart="112.00" departLane="448266581#0_0" departPos="5.10" departSpeed="0.00" departDelay="0.40" arrival="167.00" arrivalLane="778823268#0_0" arrivalPos="238.22" arrivalSpeed="12.58" duration="55.00" routeLength="546.01" waitingTime="0.00" waitingCount="0" stopTime="0.00" timeLoss="14.32" rerouteNo="0" devices="tripinfo_31" vType="DEFAULT_VEHTYPE" speedFactor="0.97" vaporized=""/>
    <tripinfo id="8" depart="29.00" departLane="-778823268#1_0" departPos="5.10" departSpeed="0.00" departDelay="0.20" arrival="171.00" arrivalLane="668307633#3_1" arrivalPos="112.63" arrivalSpeed="17.95" duration="142.00" routeLength="595.69" waitingTime="81.00" waitingCount="2" stopTime="0.00" timeLoss="105.26" rerouteNo="0" devices="tripinfo_8" vType="DEFAULT_VEHTYPE" speedFactor="1.11" vaporized=""/>
    <tripinfo id="5" depart="18.00" departLane="-778823268#1_0" departPos="5.10" departSpeed="0.00" departDelay="0.00" arrival="174.00" arrivalLane="668307633#3_0" arrivalPos="112.63" arrivalSpeed="14.77" duration="156.00" routeLength="595.69" waitingTime="96.00" waitingCount="2" stopTime="0.00" timeLoss="110.79" rerouteNo="0" devices="tripinfo_5" vType="DEFAULT_VEHTYPE" speedFactor="0.91" vaporized=""/>
    <tripinfo id="32" depart="116.00" departLane="668307639#0_0" departPos="5.10" departSpeed="0.00" departDelay="0.80" arrival="174.00" arrivalLane="778823268#0_0" arrivalPos="238.22" arrivalSpeed="14.56" duration="58.00" routeLength="503.37" waitingTime="15.00" waitingCount="1" stopTime="0.00" timeLoss="27.31" rerouteNo="0" devices="tripinfo_32" vType="DEFAULT_VEHTYPE" speedFactor="1.14" vaporized=""/>
    <tripinfo id="14" depart="51.00" departLane="668307639#0_0" departPos="5.10" departSpeed="0.00" departDelay="0.60" arrival="175.00" arrivalLane="668307633#3_2" arrivalPos="112.63" arrivalSpeed="12.94" duration="124.00" routeLength="623.09" waitingTime="51.00" waitingCount="3" stopTime="0.00" timeLoss="75.68" rerouteNo="0" devices="tripinfo_14" vType="DEFAULT_VEHTYPE" speedFactor="0.84" vaporized=""/>
    <tripinfo id="18" depart="65.00" departLane="668307639#0_0" departPos="5.10" departSpeed="0.00" departDelay="0.20" arrival="175.00" arrivalLane="668307633#3_1" arrivalPos="112.63" arrivalSpeed="14.85" duration="110.00" routeLength="623.09" waitingTime="45.00" waitingCount="2" stopTime="0.00" timeLoss="65.65" rerouteNo="0" devices="tripinfo_18" vType="DEFAULT_VEHTYPE" speedFactor="0.91" vaporized=""/>
    <tripinfo id="38" depart="137.00" departLane="668307639#0_0" departPos="5.10" departSpeed="0.00" departDelay="0.20" arrival="175.00" arrivalLane="44499684#3_0" arrivalPos="84.04" arrivalSpeed="14.15" duration="38.00" routeLength="485.82" waitingTime="0.00" waitingCount="0" stopTime="0.00" timeLoss="5.26" rerouteNo="0" devices="tripinfo_38" vType="DEFAULT_VEHTYPE" speedFactor="0.91" vaporized=""/>
    <tripinfo id="19" depart="69.00" departLane="668307639#0_0" departPos="5.10" departSpeed="0.00" departDelay="0.60" arrival="177.00" arrivalLane="668307633#3_1" arrivalPos="112.63" arrivalSpeed="16.68" duration="108.00" routeLength="625.14" waitingTime="45.00" waitingCount="2" stopTime="0.00" timeLoss="68.47" rerouteNo="0" devices="tripinfo_19" vType="DEFAULT_VEHTYPE" speedFactor="1.04" vaporized=""/>
    <tripinfo id="27" depart="98.00" departLane="448266581#0_0" departPos="5.10" departSpeed="0.00" departDelay="0.80" arrival="178.00" arrivalLane="668307633#3_0" arrivalPos="112.63" arrivalSpeed="17.32" duration="80.00" routeLength="490.12" waitingTime="33.00" waitingCount="2" stopTime="0.00" timeLoss="51.79" rerouteNo="0" devices="tripinfo_27" vType="DEFAULT_VEHTYPE" speedFactor="1.07" vaporized=""/>
    <tripinfo id="40" depart="144.00" departLane="448266581#0_0" departPos="5.10" departSpeed="0.00" departDelay="0.00" arrival="181.00" arrivalLane="119238385#0_0" arrivalPos="144.87" arrivalSpeed="12.64" duration="37.00" routeLength="416.20" waitingTime="0.00" waitingCount="0" stopTime="0.00" timeLoss="6.00" rerouteNo="0" devices="tripinfo_40" vType="DEFAULT_VEHTYPE" speedFactor="0.97" vaporized=""/>
    <tripinfo id="39" depart="141.00" departLane="232079775#2_0" departPos="5.10" departSpeed="0.00" departDelay="0.60" arrival="185.00" arrivalLane="119238385#0_0" arrivalPos="144.87" arrivalSpeed="14.43" duration="44.00" routeLength="347.78" waitingTime="10.00" waitingCount="1" stopTime="0.00" timeLoss="19.84" rerouteNo="0" devices="tripinfo_39" vType="DEFAULT_VEHTYPE" speedFactor="1.05" vaporized=""/>
    <tripinfo id="42" depart="152.00" departLane="232079775#2_0" departPos="5.10" departSpeed="0.00" departDelay="0.80" arrival="190.00" arrivalLane="119238385#0_0" arrivalPos="144.87" arrivalSpeed="12.42" duration="38.00" routeLength="347.78" waitingTime="1.00" waitingCount="1" stopTime="0.00" timeLoss="9.74" rerouteNo="0" devices="tripinfo_42" vType="DEFAULT_VEHTYPE" speedFactor="0.91" vaporized=""/>
    <tripinfo id="11" depart="40.00" departLane="232079775#2_0" departPos="5.10" departSpeed="0.00" departDelay="0.40" arrival="197.00" arrivalLane="119238380#0_0" arrivalPos="135.86" arrivalSpeed="10.47" duration="157.00" routeLength="467.31" waitingTime="100.00" waitingCount="3" stopTime="0.00" timeLoss="115.89" rerouteNo="0" devices="tripinfo_11" vType="DEFAULT_VEHTYPE" speedFactor="0.84" vaporized=""/>
    <tripinfo id="33" depart="119.00" departLane="-778823268#1_0" departPos="5.10" departSpeed="0.00" departDelay="0.20" arrival="199.00" arrivalLane="119238380#0_0" arrivalPos="135.86" arrivalSpeed="11.80" duration="80.00" routeLength="461.48" waitingTime="30.00" waitingCount="1" stopTime="0.00" timeLoss="42.71" rerouteNo="0" devices="tripinfo_33" vType="DEFAULT_VEHTYPE" speedFactor="0.92" vaporized=""/>
    <tripinfo id="44" depart="159.00" departLane="-778823268#1_0" departPos="5.10" departSpeed="0.00" departDelay="0.60" arrival="203.00" arrivalLane="119238380#0_0" arrivalPos="135.86" arrivalSpeed="11.68" duration="44.00" routeLength="461.48" waitingTime="0.00" waitingCount="0" stopTime="0.00" timeLoss="5.94" rerouteNo="0" devices="tripinfo_44" vType="DEFAULT_VEHTYPE" speedFactor="0.89" vaporized=""/>
    <tripinfo id="36" depart="130.00" departLane="668307639#0_0" departPos="5.10" departSpeed="0.00" departDelay="0.40" arrival="207.00" arrivalLane="119238385#0_0" arrivalPos="144.87" arrivalSpeed="12.10" duration="77.00" routeLength="559.31" waitingTime="18.00" waitingCount="1" stopTime="0.00" timeLoss="33.62" rerouteNo="0" devices="tripinfo_36" vType="DEFAULT_VEHTYPE" speedFactor="0.91" vaporized=""/>
    <tripinfo id="47" depart="170.00" departLane="-778823268#1_0" departPos="5.10" departSpeed="0.00" departDelay="0.80" arrival="207.00" arrivalLane="44499684#3_0" arrivalPos="84.04" arrivalSpeed="17.57" duration="37.00" routeLength="453.00" waitingTime="0.00" waitingCount="0" stopTime="0.00" timeLoss="7.26" rerouteNo="0" devices="tripinfo_47" vType="DEFAULT_VEHTYPE" speedFactor="1.07" vaporized=""/>
    <tripinfo id="41" depart="148.00" departLane="448266581#0_0" departPos="5.10" departSpeed="0.00" departDelay="0.40" arrival="216.00" arrivalLane="E1_1" arrivalPos="103.00" arrivalSpeed="13.77" duration="68.00" routeLength="448.81" waitingTime="24.00" waitingCount="1" stopTime="0.00" timeLoss="37.18" rerouteNo="0" devices="tripinfo_41" vType="DEFAULT_VEHTYPE" speedFactor="1.06" vaporized=""/>
    <tripinfo id="49" depart="177.00" departLane="668307639#0_0" departPos="5.10" departSpeed="0.00" departDelay="0.60" arrival="219.00" arrivalLane="E1_1" arrivalPos="103.00" arrivalSpeed="13.72" duration="42.00" routeLength="413.41" waitingTime="3.00" waitingCount="1" stopTime="0.00" timeLoss="13.87" rerouteNo="0" devices="tripinfo_49" vType="DEFAULT_VEHTYPE" speedFactor="1.01" vaporized=""/>
    <tripinfo id="30" depart="108.00" departLane="668307639#0_0" departPos="5.10" departSpeed="0.00" departDelay="0.00" arrival="221.00" arrivalLane="668307633#3_0" arrivalPos="112.63" arrivalSpeed="18.34" duration="113.00" routeLength="623.09" waitingTime="52.00" waitingCount="3" stopTime="0.00" timeLoss="77.36" rerouteNo="0" devices="tripinfo_30" vType="DEFAULT_VEHTYPE" speedFactor="1.14" vaporized=""/>
    <tripinfo id="45" depart="162.00" departLane="-778823268#1_0" departPos="5.10" departSpeed="0.00" departDelay="0.00" arrival="222.00" arrivalLane="668307633#3_0" arrivalPos="112.63" arrivalSpeed="15.97" duration="60.00" routeLength="595.69" waitingTime="8.00" waitingCount="1" stopTime="0.00" timeLoss="19.96" rerouteNo="0" devices="tripinfo_45" vType="DEFAULT_VEHTYPE" speedFactor="1.00" vaporized=""/>
    <tripinfo id="43" depart="155.00" departLane="668307639#0_0" departPos="5.10" departSpeed="0.00" departDelay="0.20" arrival="223.00" arrivalLane="668307633#3_2" arrivalPos="112.63" arrivalSpeed="14.72" duration="68.00" routeLength="623.09" waitingTime="5.00" waitingCount="1" stopTime="0.00" timeLoss="24.98" rerouteNo="0" devices="tripinfo_43" vType="DEFAULT_VEHTYPE" speedFactor="0.94" vaporized=""/>
    <tripinfo id="52" depart="188.00" departLane="232079775#2_0" departPos="5.10" departSpeed="0.00" departDelay="0.80" arrival="228.00" arrivalLane="668307633#3_0" arrivalPos="112.63" arrivalSpeed="16.70" duration="40.00" routeLength="455.41" waitingTime="0.00" waitingCount="0" stopTime="0.00" timeLoss="9.71" rerouteNo="0" devices="tripinfo_52" vType="DEFAULT_VEHTYPE" speedFactor="1.02" vaporized=""/>
    <tripinfo id="48" depart="173.00" departLane="668307639#0_0" departPos="5.10" departSpeed="0.00" departDelay="0.20" arrival="238.00" arrivalLane="668307633#3_1" arrivalPos="112.63" arrivalSpeed="13.12" duration="65.00" routeLength="623.09" waitingTime="3.00" waitingCount="1" stopTime="0.00" timeLoss="15.86" rerouteNo="0" devices="tripinfo_48" vType="DEFAULT_VEHTYPE" speedFactor="0.83" vaporized=""/>
    <tripinfo id="53" depart="191.00" departLane="-778823268#1_0" departPos="5.10" departSpeed="0.00" departDelay="0.20" arrival="238.00" arrivalLane="44499684#3_0" arrivalPos="84.04" arrivalSpeed="12.75" duration="47.00" routeLength="453.00" waitingTime="0.00" waitingCount="0" stopTime="0.00" timeLoss="7.30" rerouteNo="0" devices="tripinfo_53" vType="DEFAULT_VEHTYPE" speedFactor="0.80" vaporized=""/>
    <tripinfo id="57" depart="206.00" departLane="668307639#0_0" departPos="5.10" departSpeed="0.00" departDelay="0.80" arrival="244.00" arrivalLane="E1_1" arrivalPos="103.00" arrivalSpeed="14.26" duration="38.00" routeLength="411.03" waitingTime="0.00" waitingCount="0" stopTime="0.00" timeLoss="11.47" rerouteNo="0" devices="tripinfo_57" vType="DEFAULT_VEHTYPE" speedFactor="1.07" vaporized=""/>
    <tripinfo id="55" depart="198.00" departLane="668307639#0_0" departPos="5.10" departSpeed="0.00" departDelay="0.00" arrival="245.00" arrivalLane="119238385#0_0" arrivalPos="144.87" arrivalSpeed="14.02" duration="47.00" routeLength="556.93" waitingTime="0.00" waitingCount="0" stopTime="0.00" timeLoss="10.30" rerouteNo="0" devices="tripinfo_55" vType="DEFAULT_VEHTYPE" speedFactor="1.06" vaporized=""/>
    <tripinfo id="58" depart="209.00" departLane="232079775#2_0" departPos="5.10" departSpeed="0.00" departDelay="0.20" arrival="246.00" arrivalLane="668307633#3_0" arrivalPos="112.63" arrivalSpeed="17.14" duration="37.00" routeLength="455.41" waitingTime="0.00" waitingCount="0" stopTime="0.00" timeLoss="8.59" rerouteNo="0" devices="tripinfo_58" vType="DEFAULT_VEHTYPE" speedFactor="1.08" vaporized=""/>
    <tripinfo id="63" depart="227.00" departLane="-778823268#1_0" departPos="5.10" departSpeed="0.00" departDelay="0.20" arrival="260.00" arrivalLane="E1_0" arrivalPos="103.00" arrivalSpeed="13.79" duration="33.00" routeLength="369.88" waitingTime="0.00" waitingCount="0" stopTime="0.00" timeLoss="6.75" rerouteNo="0" devices="tripinfo_63" vType="DEFAULT_VEHTYPE" speedFactor="1.03" vaporized=""/>
    <tripinfo id="62" depart="224.00" departLane="-778823268#1_0" departPos="5.10" departSpeed="0.00" departDelay="0.80" arrival="267.00" arrivalLane="119238385#0_0" arrivalPos="144.87" arrivalSpeed="14.32" duration="43.00" routeLength="522.97" waitingTime="0.00" waitingCount="0" stopTime="0.00" timeLoss="5.65" rerouteNo="0" devices="tripinfo_62" vType="DEFAULT_VEHTYPE" speedFactor="1.04" vaporized=""/>
    <tripinfo id="66" depart="238.00" departLane="668307639#0_0" departPos="5.10" departSpeed="0.00" departDelay="0.40" arrival="277.00" arrivalLane="E1_1" arrivalPos="103.00" arrivalSpeed="12.32" duration="39.00" routeLength="411.03" waitingTime="0.00" waitingCount="0" stopTime="0.00" timeLoss="7.97" rerouteNo="0" devices="tripinfo_66" vType="DEFAULT_VEHTYPE" speedFactor="0.91" vaporized=""/>
    <tripinfo id="64" depart="231.00" departLane="668307639#0_0" departPos="5.10" departSpeed="0.00" departDelay="0.60" arrival="278.00" arrivalLane="778823268#0_0" arrivalPos="238.22" arrivalSpeed="12.52" duration="47.00" routeLength="503.37" waitingTime="0.00" waitingCount="0" stopTime="0.00" timeLoss="10.09" rerouteNo="0" devices="tripinfo_64" vType="DEFAULT_VEHTYPE" speedFactor="0.93" vaporized=""/>
    <tripinfo id="67" depart="242.00" departLane="-778823268#1_0" departPos="5.10" departSpeed="0.00" departDelay="0.80" arrival="278.00" arrivalLane="44499684#3_0" arrivalPos="84.04" arrivalSpeed="17.21" duration="36.00" routeLength="453.00" waitingTime="0.00" waitingCount="0" stopTime="0.00" timeLoss="6.96" rerouteNo="0" devices="tripinfo_67" vType="DEFAULT_VEHTYPE" speedFactor="1.08" vaporized=""/>
    <tripinfo id="70" depart="252.00" departLane="232079775#2_0" departPos="5.10" departSpeed="0.00" departDelay="0.00" arrival="291.00" arrivalLane="668307633#3_0" arrivalPos="112.63" arrivalSpeed="16.61" duration="39.00" routeLength="455.41" waitingTime="0.00" waitingCount="0" stopTime="0.00" timeLoss="10.13" rerouteNo="0" devices="tripinfo_70" vType="DEFAULT_VEHTYPE" speedFactor="1.05" vaporized=""/>
    <tripinfo id="54" depart="195.00" departLane="232079775#2_0" departPos="5.10" departSpeed="0.00" departDelay="0.60" arrival="292.00" arrivalLane="E1_1" arrivalPos="103.00" arrivalSpeed="12.82" duration="97.00" routeLength="382.90" waitingTime="51.00" waitingCount="1" stopTime="0.00" timeLoss="68.45" rerouteNo="0" devices="tripinfo_54" vType="DEFAULT_VEHTYPE" speedFactor="0.99" vaporized=""/>
    <tripinfo id="37" depart="134.00" departLane="448266581#0_0" departPos="5.10" departSpeed="0.00" departDelay="0.80" arrival="293.00" arrivalLane="44499684#3_1" arrivalPos="84.04" arrivalSpeed="17.35" duration="159.00" routeLength="512.41" waitingTime="105.00" waitingCount="3" stopTime="0.00" timeLoss="127.04" rerouteNo="0" devices="tripinfo_37" vType="DEFAULT_VEHTYPE" speedFactor="1.11" vaporized=""/>
    <tripinfo id="46" depart="166.00" departLane="668307639#0_0" departPos="5.10" departSpeed="0.00" departDelay="0.40" arrival="293.00" arrivalLane="44499684#3_0" arrivalPos="84.04" arrivalSpeed="16.24" duration="127.00" routeLength="485.82" waitingTime="86.00" waitingCount="1" stopTime="0.00" timeLoss="97.35" rerouteNo="0" devices="tripinfo_46" vType="DEFAULT_VEHTYPE" speedFactor="1.01" vaporized=""/>
    <tripinfo id="71" depart="256.00" departLane="232079775#2_0" departPos="5.10" departSpeed="0.00" departDelay="0.40" arrival="294.00" arrivalLane="E1_1" arrivalPos="103.00" arrivalSpeed="12.99" duration="38.00" routeLength="382.90" waitingTime="0.00" waitingCount="0" stopTime="0.00" timeLoss="9.23" rerouteNo="0" devices="tripinfo_71" vType="DEFAULT_VEHTYPE" speedFactor="0.99" vaporized=""/>
    <tripinfo id="59" depart="213.00" departLane="448266581#0_0" departPos="5.10" departSpeed="0.00" departDelay="0.60" arrival="297.00" arrivalLane="119238380#0_0" arrivalPos="135.86" arrivalSpeed="13.17" duration="84.00" routeLength="354.71" waitingTime="47.00" waitingCount="1" stopTime="0.00" timeLoss="60.21" rerouteNo="0" devices="tripinfo_59" vType="DEFAULT_VEHTYPE" speedFactor="1.03" vaporized=""/>
    <tripinfo id="72" depart="260.00" departLane="232079775#2_0" departPos="5.10" departSpeed="0.00" departDelay="0.80" arrival="297.00" arrivalLane="119238385#0_0" arrivalPos="144.87" arrivalSpeed="11.73" duration="37.00" routeLength="347.78" waitingTime="0.00" waitingCount="0" stopTime="0.00" timeLoss="9.54" rerouteNo="0" devices="tripinfo_72" vType="DEFAULT_VEHTYPE" speedFactor="0.92" vaporized=""/>
    <tripinfo id="50" depart="180.00" departLane="-778823268#1_0" departPos="5.10" departSpeed="0.00" departDelay="0.00" arrival="301.00" arrivalLane="778823268#0_0" arrivalPos="238.22" arrivalSpeed="12.17" duration="121.00" routeLength="655.26" waitingTime="52.00" waitingCount="1" stopTime="0.00" timeLoss="66.55" rerouteNo="0" devices="tripinfo_50" vType="DEFAULT_VEHTYPE" speedFactor="0.89" vaporized=""/>
    <tripinfo id="56" depart="202.00" departLane="448266581#0_0" departPos="5.10" departSpeed="0.00" departDelay="0.40" arrival="307.00" arrivalLane="119238385#0_0" arrivalPos="144.87" arrivalSpeed="13.19" duration="105.00" routeLength="414.90" waitingTime="58.00" waitingCount="2" stopTime="0.00" timeLoss="74.72" rerouteNo="0" devices="tripinfo_56" vType="DEFAULT_VEHTYPE" speedFactor="0.99" vaporized=""/>
    <tripinfo id="68" depart="245.00" departLane="-778823268#1_0" departPos="5.10" departSpeed="0.00" departDelay="0.20" arrival="309.00" arrivalLane="778823268#0_0" arrivalPos="238.22" arrivalSpeed="11.85" duration="64.00" routeLength="659.30" waitingTime="0.00" waitingCount="0" stopTime="0.00" timeLoss="10.61" rerouteNo="0" devices="tripinfo_68" vType="DEFAULT_VEHTYPE" speedFactor="0.93" vaporized=""/>
    <tripinfo id="76" depart="274.00" departLane="232079775#2_0" departPos="5.10" departSpeed="0.00" departDelay="0.40" arrival="322.00" arrivalLane="668307633#3_0" arrivalPos="112.63" arrivalSpeed="16.57" duration="48.00" routeLength="455.41" waitingTime="3.00" waitingCount="1" stopTime="0.00" timeLoss="17.57" rerouteNo="0" devices="tripinfo_76" vType="DEFAULT_VEHTYPE" speedFactor="1.01" vaporized=""/>