<?xml version="1.0" encoding="UTF-8"?>

<!-- generated on 2024-08-31 19:33:52 by Eclipse SUMO sumo Version 1.20.0
<configuration xmlns:xsi="http://www.w3.org/2001/XMLSchema-instance" xsi:noNamespaceSchemaLocation="http://sumo.dlr.de/xsd/sumoConfiguration.xsd">

    <input>
        <net-file value="c:\self\School\Master\Disertation\code\RESCO\resco_benchmark\environments/romana/osm.net.xml.gz"/>
        <route-files value="c:\self\School\Master\Disertation\code\RESCO\resco_benchmark\environments/romana/osm.passenger.trips.xml"/>
        <additional-files value="c:\self\School\Master\Disertation\code\RESCO\resco_benchmark\environments/romana/osm.poly.xml.gz"/>
    </input>

    <output>
        <tripinfo-output value="C:\self\School\Master\Disertation\code\RESCO\results\IPPO-tr0-romana-0-drq_norm-wait_norm\tripinfo_2.xml"/>
        <tripinfo-output.write-unfinished value="true"/>
    </output>

    <processing>
        <ignore-route-errors value="true"/>
        <time-to-teleport value="-1"/>
    </processing>

    <routing>
        <device.rerouting.adaptation-steps value="18"/>
        <device.rerouting.adaptation-interval value="10"/>
    </routing>

    <report>
        <verbose value="true"/>
        <no-warnings value="True"/>
        <duration-log.statistics value="true"/>
        <no-step-log value="True"/>
    </report>

    <traci_server>
        <remote-port value="59556"/>
    </traci_server>

    <random_number>
        <random value="true"/>
    </random_number>

    <gui_only>
        <gui-settings-file value="c:\self\School\Master\Disertation\code\RESCO\resco_benchmark\environments/romana/osm.view.xml"/>
    </gui_only>

</configuration>
-->

<tripinfos xmlns:xsi="http://www.w3.org/2001/XMLSchema-instance" xsi:noNamespaceSchemaLocation="http://sumo.dlr.de/xsd/tripinfo_file.xsd">
    <tripinfo id="0" depart="0.00" departLane="448266581#0_0" departPos="5.10" departSpeed="0.00" departDelay="0.00" arrival="35.00" arrivalLane="119238380#0_0" arrivalPos="135.86" arrivalSpeed="11.55" duration="35.00" routeLength="354.71" waitingTime="0.00" waitingCount="0" stopTime="0.00" timeLoss="5.60" rerouteNo="0" devices="tripinfo_0" vType="DEFAULT_VEHTYPE" speedFactor="0.84" vaporized=""/>
    <tripinfo id="1" depart="4.00" departLane="232079775#2_0" departPos="5.10" departSpeed="0.00" departDelay="0.40" arrival="41.00" arrivalLane="119238385#0_0" arrivalPos="144.87" arrivalSpeed="10.29" duration="37.00" routeLength="347.78" waitingTime="0.00" waitingCount="0" stopTime="0.00" timeLoss="4.95" rerouteNo="0" devices="tripinfo_1" vType="DEFAULT_VEHTYPE" speedFactor="0.80" vaporized=""/>
    <tripinfo id="7" depart="26.00" departLane="448266581#0_0" departPos="5.10" departSpeed="0.00" departDelay="0.80" arrival="64.00" arrivalLane="668307633#3_0" arrivalPos="112.63" arrivalSpeed="14.25" duration="38.00" routeLength="489.91" waitingTime="0.00" waitingCount="0" stopTime="0.00" timeLoss="4.69" rerouteNo="0" devices="tripinfo_7" vType="DEFAULT_VEHTYPE" speedFactor="0.90" vaporized=""/>
    <tripinfo id="10" depart="36.00" departLane="668307639#0_0" departPos="5.10" departSpeed="0.00" departDelay="0.00" arrival="77.00" arrivalLane="778823268#0_0" arrivalPos="238.22" arrivalSpeed="14.43" duration="41.00" routeLength="503.37" waitingTime="0.00" waitingCount="0" stopTime="0.00" timeLoss="8.28" rerouteNo="0" devices="tripinfo_10" vType="DEFAULT_VEHTYPE" speedFactor="1.05" vaporized=""/>
    <tripinfo id="12" depart="44.00" departLane="668307639#0_0" departPos="5.10" departSpeed="0.00" departDelay="0.80" arrival="77.00" arrivalLane="44499684#3_0" arrivalPos="84.04" arrivalSpeed="17.52" duration="33.00" routeLength="485.82" waitingTime="0.00" waitingCount="0" stopTime="0.00" timeLoss="5.22" rerouteNo="0" devices="tripinfo_12" vType="DEFAULT_VEHTYPE" speedFactor="1.08" vaporized=""/>
    <tripinfo id="2" depart="8.00" departLane="448266581#0_0" departPos="5.10" departSpeed="0.00" departDelay="0.80" arrival="100.00" arrivalLane="778823268#0_0" arrivalPos="238.22" arrivalSpeed="12.62" duration="92.00" routeLength="550.05" waitingTime="34.00" waitingCount="2" stopTime="0.00" timeLoss="49.58" rerouteNo="0" devices="tripinfo_2" vType="DEFAULT_VEHTYPE" speedFactor="0.93" vaporized=""/>
    <tripinfo id="20" depart="72.00" departLane="448266581#0_0" departPos="5.10" departSpeed="0.00" departDelay="0.00" arrival="104.00" arrivalLane="119238380#0_0" arrivalPos="135.86" arrivalSpeed="11.94" duration="32.00" routeLength="354.71" waitingTime="0.00" waitingCount="0" stopTime="0.00" timeLoss="5.85" rerouteNo="0" devices="tripinfo_20" vType="DEFAULT_VEHTYPE" speedFactor="0.93" vaporized=""/>
    <tripinfo id="17" depart="62.00" departLane="232079775#2_0" departPos="5.10" departSpeed="0.00" departDelay="0.80" arrival="106.00" arrivalLane="668307633#3_0" arrivalPos="112.63" arrivalSpeed="15.06" duration="44.00" routeLength="455.41" waitingTime="0.00" waitingCount="0" stopTime="0.00" timeLoss="11.02" rerouteNo="0" devices="tripinfo_17" vType="DEFAULT_VEHTYPE" speedFactor="0.96" vaporized=""/>
    <tripinfo id="15" depart="54.00" departLane="668307639#0_0" departPos="5.10" departSpeed="0.00" departDelay="0.00" arrival="128.00" arrivalLane="778823268#0_0" arrivalPos="238.22" arrivalSpeed="12.35" duration="74.00" routeLength="503.37" waitingTime="25.00" waitingCount="1" stopTime="0.00" timeLoss="36.67" rerouteNo="0" devices="tripinfo_15" vType="DEFAULT_VEHTYPE" speedFactor="0.92" vaporized=""/>
    <tripinfo id="25" depart="90.00" departLane="232079775#2_0" departPos="5.10" departSpeed="0.00" departDelay="0.00" arrival="130.00" arrivalLane="119238385#0_0" arrivalPos="144.87" arrivalSpeed="12.23" duration="40.00" routeLength="347.78" waitingTime="3.00" waitingCount="1" stopTime="0.00" timeLoss="10.87" rerouteNo="0" devices="tripinfo_25" vType="DEFAULT_VEHTYPE" speedFactor="0.88" vaporized=""/>
    <tripinfo id="27" depart="98.00" departLane="448266581#0_0" departPos="5.10" departSpeed="0.00" departDelay="0.80" arrival="137.00" arrivalLane="668307633#3_0" arrivalPos="112.63" arrivalSpeed="13.70" duration="39.00" routeLength="489.91" waitingTime="0.00" waitingCount="0" stopTime="0.00" timeLoss="5.11" rerouteNo="0" devices="tripinfo_27" vType="DEFAULT_VEHTYPE" speedFactor="0.88" vaporized=""/>
    <tripinfo id="34" depart="123.00" departLane="232079775#2_0" departPos="5.10" departSpeed="0.00" departDelay="0.60" arrival="154.00" arrivalLane="119238385#0_0" arrivalPos="144.87" arrivalSpeed="13.66" duration="31.00" routeLength="347.78" waitingTime="0.00" waitingCount="0" stopTime="0.00" timeLoss="6.53" rerouteNo="0" devices="tripinfo_34" vType="DEFAULT_VEHTYPE" speedFactor="1.05" vaporized=""/>
    <tripinfo id="32" depart="116.00" departLane="668307639#0_0" departPos="5.10" departSpeed="0.00" departDelay="0.80" arrival="164.00" arrivalLane="778823268#0_0" arrivalPos="238.22" arrivalSpeed="12.26" duration="48.00" routeLength="503.37" waitingTime="0.00" waitingCount="0" stopTime="0.00" timeLoss="8.80" rerouteNo="0" devices="tripinfo_32" vType="DEFAULT_VEHTYPE" speedFactor="0.90" vaporized=""/>
    <tripinfo id="39" depart="141.00" departLane="232079775#2_0" departPos="5.10" departSpeed="0.00" departDelay="0.60" arrival="171.00" arrivalLane="119238385#0_0" arrivalPos="144.87" arrivalSpeed="13.91" duration="30.00" routeLength="347.78" waitingTime="0.00" waitingCount="0" stopTime="0.00" timeLoss="6.72" rerouteNo="0" devices="tripinfo_39" vType="DEFAULT_VEHTYPE" speedFactor="1.09" vaporized=""/>
    <tripinfo id="40" depart="144.00" departLane="448266581#0_0" departPos="5.10" departSpeed="0.00" departDelay="0.00" arrival="185.00" arrivalLane="119238385#0_0" arrivalPos="144.87" arrivalSpeed="10.55" duration="41.00" routeLength="416.20" waitingTime="0.00" waitingCount="0" stopTime="0.00" timeLoss="6.19" rerouteNo="0" devices="tripinfo_40" vType="DEFAULT_VEHTYPE" speedFactor="0.84" vaporized=""/>
    <tripinfo id="42" depart="152.00" departLane="232079775#2_0" departPos="5.10" departSpeed="0.00" departDelay="0.80" arrival="189.00" arrivalLane="119238385#0_0" arrivalPos="144.87" arrivalSpeed="13.77" duration="37.00" routeLength="347.78" waitingTime="2.00" waitingCount="1" stopTime="0.00" timeLoss="11.79" rerouteNo="0" devices="tripinfo_42" vType="DEFAULT_VEHTYPE" speedFactor="1.02" vaporized=""/>
    <tripinfo id="3" depart="11.00" departLane="668307639#0_0" departPos="5.10" departSpeed="0.00" departDelay="0.20" arrival="224.00" arrivalLane="119238380#0_0" arrivalPos="135.86" arrivalSpeed="11.59" duration="213.00" routeLength="495.44" waitingTime="158.00" waitingCount="2" stopTime="0.00" timeLoss="174.69" rerouteNo="0" devices="tripinfo_3" vType="DEFAULT_VEHTYPE" speedFactor="0.89" vaporized=""/>
    <tripinfo id="5" depart="18.00" departLane="-778823268#1_0" departPos="5.10" departSpeed="0.00" departDelay="0.00" arrival="224.00" arrivalLane="668307633#3_1" arrivalPos="112.63" arrivalSpeed="17.95" duration="206.00" routeLength="595.69" waitingTime="158.00" waitingCount="1" stopTime="0.00" timeLoss="169.10" rerouteNo="0" devices="tripinfo_5" vType="DEFAULT_VEHTYPE" speedFactor="1.08" vaporized=""/>
    <tripinfo id="9" depart="33.00" departLane="668307639#0_0" departPos="5.10" departSpeed="0.00" departDelay="0.60" arrival="225.00" arrivalLane="119238380#0_0" arrivalPos="135.86" arrivalSpeed="13.02" duration="192.00" routeLength="495.44" waitingTime="145.00" waitingCount="1" stopTime="0.00" timeLoss="160.06" rerouteNo="0" devices="tripinfo_9" vType="DEFAULT_VEHTYPE" speedFactor="1.05" vaporized=""/>
    <tripinfo id="6" depart="22.00" departLane="-778823268#1_0" departPos="5.10" departSpeed="0.00" departDelay="0.40" arrival="226.00" arrivalLane="119238385#0_0" arrivalPos="144.87" arrivalSpeed="13.75" duration="204.00" routeLength="522.97" waitingTime="153.00" waitingCount="1" stopTime="0.00" timeLoss="164.25" rerouteNo="0" devices="tripinfo_6" vType="DEFAULT_VEHTYPE" speedFactor="0.99" vaporized=""/>
    <tripinfo id="13" depart="47.00" departLane="-778823268#1_0" departPos="5.10" departSpeed="0.00" departDelay="0.20" arrival="227.00" arrivalLane="119238380#0_0" arrivalPos="135.86" arrivalSpeed="14.43" duration="180.00" routeLength="461.48" waitingTime="135.00" waitingCount="1" stopTime="0.00" timeLoss="149.87" rerouteNo="0" devices="tripinfo_13" vType="DEFAULT_VEHTYPE" speedFactor="1.12" vaporized=""/>
    <tripinfo id="8" depart="29.00" departLane="-778823268#1_0" departPos="5.10" departSpeed="0.00" departDelay="0.20" arrival="229.00" arrivalLane="668307633#3_1" arrivalPos="112.63" arrivalSpeed="14.81" duration="200.00" routeLength="595.69" waitingTime="148.00" waitingCount="1" stopTime="0.00" timeLoss="156.96" rerouteNo="0" devices="tripinfo_8" vType="DEFAULT_VEHTYPE" speedFactor="0.94" vaporized=""/>
    <tripinfo id="11" depart="40.00" departLane="232079775#2_0" departPos="5.10" departSpeed="0.00" departDelay="0.40" arrival="229.00" arrivalLane="119238380#0_0" arrivalPos="135.86" arrivalSpeed="14.56" duration="189.00" routeLength="467.31" waitingTime="136.00" waitingCount="2" stopTime="0.00" timeLoss="156.48" rerouteNo="0" devices="tripinfo_11" vType="DEFAULT_VEHTYPE" speedFactor="1.05" vaporized=""/>
    <tripinfo id="52" depart="188.00" departLane="232079775#2_0" departPos="5.10" departSpeed="0.00" departDelay="0.80" arrival="230.00" arrivalLane="668307633#3_0" arrivalPos="112.63" arrivalSpeed="14.48" duration="42.00" routeLength="455.41" waitingTime="0.00" waitingCount="0" stopTime="0.00" timeLoss="7.70" rerouteNo="0" devices="tripinfo_52" vType="DEFAULT_VEHTYPE" speedFactor="0.89" vaporized=""/>
    <tripinfo id="14" depart="51.00" departLane="668307639#0_0" departPos="5.10" departSpeed="0.00" departDelay="0.60" arrival="232.00" arrivalLane="668307633#3_1" arrivalPos="112.63" arrivalSpeed="15.34" duration="181.00" routeLength="623.09" waitingTime="123.00" waitingCount="2" stopTime="0.00" timeLoss="138.57" rerouteNo="0" devices="tripinfo_14" vType="DEFAULT_VEHTYPE" speedFactor="0.94" vaporized=""/>
    <tripinfo id="21" depart="76.00" departLane="-778823268#1_0" departPos="5.10" departSpeed="0.00" departDelay="0.40" arrival="235.00" arrivalLane="119238385#0_0" arrivalPos="144.87" arrivalSpeed="15.15" duration="159.00" routeLength="522.97" waitingTime="110.00" waitingCount="2" stopTime="0.00" timeLoss="124.71" rerouteNo="0" devices="tripinfo_21" vType="DEFAULT_VEHTYPE" speedFactor="1.13" vaporized=""/>
    <tripinfo id="35" depart="126.00" departLane="-778823268#1_0" departPos="5.10" departSpeed="0.00" departDelay="0.00" arrival="236.00" arrivalLane="E1_0" arrivalPos="103.00" arrivalSpeed="13.15" duration="110.00" routeLength="369.88" waitingTime="65.00" waitingCount="1" stopTime="0.00" timeLoss="81.60" rerouteNo="0" devices="tripinfo_35" vType="DEFAULT_VEHTYPE" speedFactor="0.96" vaporized=""/>
    <tripinfo id="29" depart="105.00" departLane="-778823268#1_0" departPos="5.10" departSpeed="0.00" departDelay="0.60" arrival="237.00" arrivalLane="44499684#3_0" arrivalPos="84.04" arrivalSpeed="17.12" duration="132.00" routeLength="453.00" waitingTime="83.00" waitingCount="1" stopTime="0.00" timeLoss="102.59" rerouteNo="0" devices="tripinfo_29" vType="DEFAULT_VEHTYPE" speedFactor="1.06" vaporized=""/>
    <tripinfo id="33" depart="119.00" departLane="-778823268#1_0" departPos="5.10" departSpeed="0.00" departDelay="0.20" arrival="241.00" arrivalLane="119238380#0_0" arrivalPos="135.86" arrivalSpeed="12.78" duration="122.00" routeLength="461.48" waitingTime="70.00" waitingCount="1" stopTime="0.00" timeLoss="87.56" rerouteNo="0" devices="tripinfo_33" vType="DEFAULT_VEHTYPE" speedFactor="0.99" vaporized=""/>
    <tripinfo id="22" depart="80.00" departLane="-778823268#1_0" departPos="5.10" departSpeed="0.00" departDelay="0.80" arrival="242.00" arrivalLane="119238385#0_0" arrivalPos="144.87" arrivalSpeed="11.46" duration="162.00" routeLength="522.97" waitingTime="103.00" waitingCount="1" stopTime="0.00" timeLoss="118.94" rerouteNo="0" devices="tripinfo_22" vType="DEFAULT_VEHTYPE" speedFactor="0.91" vaporized=""/>
    <tripinfo id="23" depart="83.00" departLane="-778823268#1_0" departPos="5.10" departSpeed="0.00" departDelay="0.20" arrival="244.00" arrivalLane="119238385#0_0" arrivalPos="144.87" arrivalSpeed="13.74" duration="161.00" routeLength="522.97" waitingTime="103.00" waitingCount="1" stopTime="0.00" timeLoss="122.61" rerouteNo="0" devices="tripinfo_23" vType="DEFAULT_VEHTYPE" speedFactor="1.03" vaporized=""/>
    <tripinfo id="16" depart="58.00" departLane="448266581#0_0" departPos="5.10" departSpeed="0.00" departDelay="0.40" arrival="246.00" arrivalLane="E1_1" arrivalPos="103.00" arrivalSpeed="13.32" duration="188.00" routeLength="446.50" waitingTime="143.00" waitingCount="1" stopTime="0.00" timeLoss="154.81" rerouteNo="0" devices="tripinfo_16" vType="DEFAULT_VEHTYPE" speedFactor="0.97" vaporized=""/>
    <tripinfo id="44" depart="159.00" departLane="-778823268#1_0" departPos="5.10" departSpeed="0.00" departDelay="0.60" arrival="246.00" arrivalLane="119238380#0_0" arrivalPos="135.86" arrivalSpeed="11.61" duration="87.00" routeLength="461.48" waitingTime="33.00" waitingCount="1" stopTime="0.00" timeLoss="49.53" rerouteNo="0" devices="tripinfo_44" vType="DEFAULT_VEHTYPE" speedFactor="0.91" vaporized=""/>
    <tripinfo id="47" depart="170.00" departLane="-778823268#1_0" departPos="5.10" departSpeed="0.00" departDelay="0.80" arrival="246.00" arrivalLane="44499684#3_0" arrivalPos="84.04" arrivalSpeed="16.26" duration="76.00" routeLength="453.00" waitingTime="24.00" waitingCount="1" stopTime="0.00" timeLoss="45.77" rerouteNo="0" devices="tripinfo_47" vType="DEFAULT_VEHTYPE" speedFactor="1.02" vaporized=""/>
    <tripinfo id="26" depart="94.00" departLane="232079775#2_0" departPos="5.10" departSpeed="0.00" departDelay="0.40" arrival="248.00" arrivalLane="E1_1" arrivalPos="103.00" arrivalSpeed="14.59" duration="154.00" routeLength="382.90" waitingTime="109.00" waitingCount="1" stopTime="0.00" timeLoss="128.28" rerouteNo="0" devices="tripinfo_26" vType="DEFAULT_VEHTYPE" speedFactor="1.12" vaporized=""/>
    <tripinfo id="53" depart="191.00" departLane="-778823268#1_0" departPos="5.10" departSpeed="0.00" departDelay="0.20" arrival="252.00" arrivalLane="44499684#3_0" arrivalPos="84.04" arrivalSpeed="16.53" duration="61.00" routeLength="453.00" waitingTime="7.00" waitingCount="1" stopTime="0.00" timeLoss="30.49" rerouteNo="0" devices="tripinfo_53" vType="DEFAULT_VEHTYPE" speedFactor="1.02" vaporized=""/>
    <tripinfo id="4" depart="15.00" departLane="232079775#2_0" departPos="5.10" departSpeed="0.00" departDelay="0.60" arrival="260.00" arrivalLane="119238380#0_0" arrivalPos="135.86" arrivalSpeed="12.81" duration="245.00" routeLength="467.31" waitingTime="195.00" waitingCount="2" stopTime="0.00" timeLoss="208.94" rerouteNo="0" devices="tripinfo_4" vType="DEFAULT_VEHTYPE" speedFactor="0.94" vaporized=""/>
    <tripinfo id="63" depart="227.00" departLane="-778823268#1_0" departPos="5.10" departSpeed="0.00" departDelay="0.20" arrival="260.00" arrivalLane="E1_0" arrivalPos="103.00" arrivalSpeed="12.76" duration="33.00" routeLength="369.88" waitingTime="0.00" waitingCount="0" stopTime="0.00" timeLoss="5.87" rerouteNo="0" devices="tripinfo_63" vType="DEFAULT_VEHTYPE" speedFactor="1.00" vaporized=""/>
    <tripinfo id="58" depart="209.00" departLane="232079775#2_0" departPos="5.10" departSpeed="0.00" departDelay="0.20" arrival="261.00" arrivalLane="668307633#3_0" arrivalPos="112.63" arrivalSpeed="19.23" duration="52.00" routeLength="455.41" waitingTime="12.00" waitingCount="1" stopTime="0.00" timeLoss="25.95" rerouteNo="0" devices="tripinfo_58" vType="DEFAULT_VEHTYPE" speedFactor="1.18" vaporized=""/>
    <tripinfo id="41" depart="148.00" departLane="448266581#0_0" departPos="5.10" departSpeed="0.00" departDelay="0.40" arrival="265.00" arrivalLane="E1_1" arrivalPos="103.00" arrivalSpeed="11.34" duration="117.00" routeLength="448.81" waitingTime="61.00" waitingCount="2" stopTime="0.00" timeLoss="80.92" rerouteNo="0" devices="tripinfo_41" vType="DEFAULT_VEHTYPE" speedFactor="0.89" vaporized=""/>
    <tripinfo id="50" depart="180.00" departLane="-778823268#1_0" departPos="5.10" departSpeed="0.00" departDelay="0.00" arrival="265.00" arrivalLane="778823268#0_0" arrivalPos="238.22" arrivalSpeed="14.49" duration="85.00" routeLength="655.26" waitingTime="9.00" waitingCount="2" stopTime="0.00" timeLoss="41.25" rerouteNo="0" devices="tripinfo_50" vType="DEFAULT_VEHTYPE" speedFactor="1.11" vaporized=""/>
    <tripinfo id="31" depart="112.00" departLane="448266581#0_0" departPos="5.10" departSpeed="0.00" departDelay="0.40" arrival="268.00" arrivalLane="778823268#0_0" arrivalPos="238.22" arrivalSpeed="10.35" duration="156.00" routeLength="550.05" waitingTime="91.00" waitingCount="1" stopTime="0.00" timeLoss="107.24" rerouteNo="0" devices="tripinfo_31" vType="DEFAULT_VEHTYPE" speedFactor="0.82" vaporized=""/>
    <tripinfo id="62" depart="224.00" departLane="-778823268#1_0" departPos="5.10" departSpeed="0.00" departDelay="0.80" arrival="268.00" arrivalLane="119238385#0_0" arrivalPos="144.87" arrivalSpeed="13.09" duration="44.00" routeLength="522.97" waitingTime="0.00" waitingCount="0" stopTime="0.00" timeLoss="5.98" rerouteNo="0" devices="tripinfo_62" vType="DEFAULT_VEHTYPE" speedFactor="1.03" vaporized=""/>
    <tripinfo id="28" depart="101.00" departLane="-778823268#1_0" departPos="5.10" departSpeed="0.00" departDelay="0.20" arrival="273.00" arrivalLane="778823268#0_0" arrivalPos="238.22" arrivalSpeed="13.10" duration="172.00" routeLength="655.26" waitingTime="93.00" waitingCount="3" stopTime="0.00" timeLoss="123.76" rerouteNo="0" devices="tripinfo_28" vType="DEFAULT_VEHTYPE" speedFactor="1.02" vaporized=""/>
    <tripinfo id="49" depart="177.00" departLane="668307639#0_0" departPos="5.10" departSpeed="0.00" departDelay="0.60" arrival="279.00" arrivalLane="E1_1" arrivalPos="103.00" arrivalSpeed="13.11" duration="102.00" routeLength="411.03" waitingTime="58.00" waitingCount="1" stopTime="0.00" timeLoss="74.26" rerouteNo="0" devices="tripinfo_49" vType="DEFAULT_VEHTYPE" speedFactor="1.02" vaporized=""/>
    <tripinfo id="64" depart="231.00" departLane="668307639#0_0" departPos="5.10" departSpeed="0.00" departDelay="0.60" arrival="282.00" arrivalLane="778823268#0_0" arrivalPos="238.22" arrivalSpeed="12.02" duration="51.00" routeLength="503.37" waitingTime="1.00" waitingCount="1" stopTime="0.00" timeLoss="12.87" rerouteNo="0" devices="tripinfo_64" vType="DEFAULT_VEHTYPE" speedFactor="0.91" vaporized=""/>
    <tripinfo id="67" depart="242.00" departLane="-778823268#1_0" departPos="5.10" departSpeed="0.00" departDelay="0.80" arrival="282.00" arrivalLane="44499684#3_0" arrivalPos="84.04" arrivalSpeed="15.12" duration="40.00" routeLength="453.00" waitingTime="0.00" waitingCount="0" stopTime="0.00" timeLoss="7.64" rerouteNo="0" devices="tripinfo_67" vType="DEFAULT_VEHTYPE" speedFactor="0.96" vaporized=""/>
    <tripinfo id="57" depart="206.00" departLane="668307639#0_0" departPos="5.10" departSpeed="0.00" departDelay="0.80" arrival="285.00" arrivalLane="E1_1" arrivalPos="103.00" arrivalSpeed="11.96" duration="79.00" routeLength="411.03" waitingTime="31.00" waitingCount="1" stopTime="0.00" timeLoss="48.85" rerouteNo="0" devices="tripinfo_57" vType="DEFAULT_VEHTYPE" speedFactor="0.93" vaporized=""/>
    <tripinfo id="36" depart="130.00" departLane="668307639#0_0" departPos="5.10" departSpeed="0.00" departDelay="0.40" arrival="286.00" arrivalLane="119238385#0_0" arrivalPos="144.87" arrivalSpeed="12.34" duration="156.00" routeLength="556.93" waitingTime="100.00" waitingCount="1" stopTime="0.00" timeLoss="114.52" rerouteNo="0" devices="tripinfo_36" vType="DEFAULT_VEHTYPE" speedFactor="0.93" vaporized=""/>
    <tripinfo id="38" depart="137.00" departLane="668307639#0_0" departPos="5.10" departSpeed="0.00" departDelay="0.20" arrival="293.00" arrivalLane="44499684#3_0" arrivalPos="84.04" arrivalSpeed="15.64" duration="156.00" routeLength="485.82" waitingTime="110.00" waitingCount="2" stopTime="0.00" timeLoss="125.32" rerouteNo="0" devices="tripinfo_38" vType="DEFAULT_VEHTYPE" speedFactor="0.97" vaporized=""/>
    <tripinfo id="24" depart="87.00" departLane="448266581#0_0" departPos="5.10" departSpeed="0.00" departDelay="0.60" arrival="294.00" arrivalLane="44499684#3_1" arrivalPos="84.04" arrivalSpeed="14.77" duration="207.00" routeLength="508.78" waitingTime="151.00" waitingCount="2" stopTime="0.00" timeLoss="170.33" rerouteNo="0" devices="tripinfo_24" vType="DEFAULT_VEHTYPE" speedFactor="0.93" vaporized=""/>
    <tripinfo id="37" depart="134.00" departLane="448266581#0_0" departPos="5.10" departSpeed="0.00" departDelay="0.80" arrival="294.00" arrivalLane="44499684#3_2" arrivalPos="84.04" arrivalSpeed="15.49" duration="160.00" routeLength="508.78" waitingTime="98.00" waitingCount="2" stopTime="0.00" timeLoss="123.26" rerouteNo="0" devices="tripinfo_37" vType="DEFAULT_VEHTYPE" speedFactor="0.94" vaporized=""/>
    <tripinfo id="46" depart="166.00" departLane="668307639#0_0" departPos="5.10" departSpeed="0.00" departDelay="0.40" arrival="297.00" arrivalLane="44499684#3_0" arrivalPos="84.04" arrivalSpeed="14.20" duration="131.00" routeLength="485.82" waitingTime="76.00" waitingCount="3" stopTime="0.00" timeLoss="95.75" rerouteNo="0" devices="tripinfo_46" vType="DEFAULT_VEHTYPE" speedFactor="0.86" vaporized=""/>
    <tripinfo id="59" depart="213.00" departLane="448266581#0_0" departPos="5.10" departSpeed="0.00" departDelay="0.60" arrival="297.00" arrivalLane="119238380#0_0" arrivalPos="135.86" arrivalSpeed="15.75" duration="84.00" routeLength="354.71" waitingTime="49.00" waitingCount="1" stopTime="0.00" timeLoss="62.06" rerouteNo="0" devices="tripinfo_59" vType="DEFAULT_VEHTYPE" speedFactor="1.15" vaporized=""/>
    <tripinfo id="72" depart="260.00" departLane="232079775#2_0" departPos="5.10" departSpeed="0.00" departDelay="0.80" arrival="297.00" arrivalLane="119238385#0_0" arrivalPos="144.87" arrivalSpeed="11.61" duration="37.00" routeLength="347.78" waitingTime="0.00" waitingCount="0" stopTime="0.00" timeLoss="8.26" rerouteNo="0" devices="tripinfo_72" vType="DEFAULT_VEHTYPE" speedFactor="0.89" vaporized=""/>
    <tripinfo id="70" depart="252.00" departLane="232079775#2_0" departPos="5.10" departSpeed="0.00" departDelay="0.00" arrival="306.00" arrivalLane="668307633#3_0" arrivalPos="112.63" arrivalSpeed="12.51" duration="54.00" routeLength="455.41" waitingTime="5.00" waitingCount="1" stopTime="0.00" timeLoss="16.77" rerouteNo="0" devices="tripinfo_70" vType="DEFAULT_VEHTYPE" speedFactor="0.83" vaporized=""/>
    <tripinfo id="56" depart="202.00" departLane="448266581#0_0" departPos="5.10" departSpeed="0.00" departDelay="0.40" arrival="311.00" arrivalLane="119238385#0_0" arrivalPos="144.87" arrivalSpeed="10.69" duration="109.00" routeLength="417.71" waitingTime="60.00" waitingCount="2" stopTime="0.00" timeLoss="73.11" rerouteNo="0" devices="tripinfo_56" vType="DEFAULT_VEHTYPE" speedFactor="0.83" vaporized=""/>
    <tripinfo id="76" depart="274.00" departLane="232079775#2_0" departPos="5.10" departSpeed="0.00" departDelay="0.40" arrival="320.00" arrivalLane="668307633#3_0" arrivalPos="112.63" arrivalSpeed="18.34" duration="46.00" routeLength="455.41" waitingTime="6.00" waitingCount="1" stopTime="0.00" timeLoss="19.32" rerouteNo="0" devices="tripinfo_76" vType="DEFAULT_VEHTYPE" speedFactor="1.15" vaporized=""/>
    <tripinfo id="68" depart="245.00" departLane="-778823268#1_0" departPos="5.10" departSpeed="0.00" departDelay="0.20" arrival="323.00" arrivalLane="778823268#0_0" arrivalPos="238.22" arrivalSpeed="14.33" duration="78.00" routeLength="655.26" waitingTime="18.00" waitingCount="1" stopTime="0.00" timeLoss="32.34" rerouteNo="0" devices="tripinfo_68" vType="DEFAULT_VEHTYPE" speedFactor="1.08" vaporized=""/>
    <tripinfo id="78" depart="281.00" departLane="232079775#2_0" departPos="5.10" departSpeed="0.00" departDelay="0.20" arrival="323.00" arrivalLane="668307633#3_1" arrivalPos="112.63" arrivalSpeed="17.81" duration="42.00" routeLength="460.73" waitingTime="0.00" waitingCount="0" stopTime="0.00" timeLoss="12.61" rerouteNo="0" devices="tripinfo_78" vType="DEFAULT_VEHTYPE" speedFactor="1.07" vaporized=""/>
    <tripinfo id="73" depart="263.00" departLane="448266581#0_0" departPos="5.10" departSpeed="0.00" departDelay="0.20" arrival="354.00" arrivalLane="778823268#0_0" arrivalPos="238.22" arrivalSpeed="10.02" duration="91.00" routeLength="547.37" waitingTime="22.00" waitingCount="2" stopTime="0.00" timeLoss="41.21" rerouteNo="0" devices="tripinfo_73" vType="DEFAULT_VEHTYPE" speedFactor="0.79" vaporized=""/>
    <tripinfo id="45" depart="162.00" departLane="-778823268#1_0" departPos="5.10" departSpeed="0.00" departDelay="0.00" arrival="371.00" arrivalLane="668307633#3_0" arrivalPos="112.63" arrivalSpeed="16.91" duration="209.00" routeLength="595.69" waitingTime="149.00" waitingCount="2" stopTime="0.00" timeLoss="170.93" rerouteNo="0" devices="tripinfo_45" vType="DEFAULT_VEHTYPE" speedFactor="1.07" vaporized=""/>
    <tripinfo id="19" depart="69.00" departLane="668307639#0_0" departPos="5.10" departSpeed="0.00" departDelay="0.60" arrival="372.00" arrivalLane="668307633#3_0" arrivalPos="112.63" arrivalSpeed="17.72" duration="303.00" routeLength="623.09" waitingTime="238.00" waitingCount="3" stopTime="0.00" timeLoss="265.09" rerouteNo="0" devices="tripinfo_19" vType="DEFAULT_VEHTYPE" speedFactor="1.07" vaporized=""/>
    <tripinfo id="18" depart="65.00" departLane="668307639#0_0" departPos="5.10" departSpeed="0.00" departDelay="0.20" arrival="374.00" arrivalLane="668307633#3_2" arrivalPos="112.63" arrivalSpeed="14.00" duration="309.00" routeLength="625.14" waitingTime="240.00" waitingCount="4" stopTime="0.00" timeLoss="263.98" rerouteNo="0" devices="tripinfo_18" vType="DEFAULT_VEHTYPE" speedFactor="0.90" vaporized=""/>
    <tripinfo id="30" depart="108.00" departLane="668307639#0_0" departPos="5.10" departSpeed="0.00" departDelay="0.00" arrival="374.00" arrivalLane="668307633#3_0" arrivalPos="112.63" arrivalSpeed="16.05" duration="266.00" routeLength="625.14" waitingTime="204.00" waitingCount="2" stopTime="0.00" timeLoss="226.04" rerouteNo="0" devices="tripinfo_30" vType="DEFAULT_VEHTYPE" speedFactor="1.02" vaporized=""/>
    <tripinfo id="43" depart="155.00" departLane="668307639#0_0" departPos="5.10" departSpeed="0.00" departDelay="0.20" arrival="374.00" arrivalLane="668307633#3_1" arrivalPos="112.63" arrivalSpeed="17.39" duration="219.00" routeLength="623.09" waitingTime="153.00" waitingCount="2" stopTime="0.00" timeLoss="180.17" rerouteNo="0" devices="tripinfo_43" vType="DEFAULT_VEHTYPE" speedFactor="1.05" vaporized=""/>
    <tripinfo id="95" depart="342.00" departLane="232079775#2_0" departPos="5.10" departSpeed="0.00" departDelay="0.00" arrival="374.00" arrivalLane="119238385#0_0" arrivalPos="144.87" arrivalSpeed="12.30" duration="32.00" routeLength="347.78" waitingTime="0.00" waitingCount="0" stopTime="0.00" timeLoss="4.75" rerouteNo="0" devices="tripinfo_95" vType="DEFAULT_VEHTYPE" speedFactor="0.94" vaporized=""/>
    <tripinfo id="51" depart="184.00" departLane="448266581#0_0" departPos="5.10" departSpeed="0.00" departDelay="0.40" arrival="381.00" arrivalLane="668307633#3_0" arrivalPos="112.63" arrivalSpeed="12.16" duration="197.00" routeLength="489.91" waitingTime="141.00" waitingCount="2" stopTime="0.00" timeLoss="157.98" rerouteNo="0" devices="tripinfo_51" vType="DEFAULT_VEHTYPE" speedFactor="0.77" vaporized=""/>
    <tripinfo id="98" depart="353.00" departLane="448266581#0_0" departPos="5.10" departSpeed="0.00" departDelay="0.20" arrival="383.00" arrivalLane="119238380#0_0" arrivalPos="135.86" arrivalSpeed="14.45" duration="30.00" routeLength="354.71" waitingTime="0.00" waitingCount="0" stopTime="0.00" timeLoss="7.12" rerouteNo="0" devices="tripinfo_98" vType="DEFAULT_VEHTYPE" speedFactor="1.10" vaporized=""/>