<?xml version="1.0" encoding="UTF-8"?>

<!-- generated on 2024-08-31 19:38:00 by Eclipse SUMO sumo Version 1.20.0
<configuration xmlns:xsi="http://www.w3.org/2001/XMLSchema-instance" xsi:noNamespaceSchemaLocation="http://sumo.dlr.de/xsd/sumoConfiguration.xsd">

    <input>
        <net-file value="c:\self\School\Master\Disertation\code\RESCO\resco_benchmark\environments/romana/osm.net.xml.gz"/>
        <route-files value="c:\self\School\Master\Disertation\code\RESCO\resco_benchmark\environments/romana/osm.passenger.trips.xml"/>
        <additional-files value="c:\self\School\Master\Disertation\code\RESCO\resco_benchmark\environments/romana/osm.poly.xml.gz"/>
    </input>

    <output>
        <tripinfo-output value="C:\self\School\Master\Disertation\code\RESCO\results\IPPO-tr0-romana-0-drq_norm-wait_norm\tripinfo_42.xml"/>
        <tripinfo-output.write-unfinished value="true"/>
    </output>

    <processing>
        <ignore-route-errors value="true"/>
        <time-to-teleport value="-1"/>
    </processing>

    <routing>
        <device.rerouting.adaptation-steps value="18"/>
        <device.rerouting.adaptation-interval value="10"/>
    </routing>

    <report>
        <verbose value="true"/>
        <no-warnings value="True"/>
        <duration-log.statistics value="true"/>
        <no-step-log value="True"/>
    </report>

    <traci_server>
        <remote-port value="59846"/>
    </traci_server>

    <random_number>
        <random value="true"/>
    </random_number>

    <gui_only>
        <gui-settings-file value="c:\self\School\Master\Disertation\code\RESCO\resco_benchmark\environments/romana/osm.view.xml"/>
    </gui_only>

</configuration>
-->

<tripinfos xmlns:xsi="http://www.w3.org/2001/XMLSchema-instance" xsi:noNamespaceSchemaLocation="http://sumo.dlr.de/xsd/tripinfo_file.xsd">
    <tripinfo id="0" depart="0.00" departLane="448266581#0_0" departPos="5.10" departSpeed="0.00" departDelay="0.00" arrival="35.00" arrivalLane="119238380#0_0" arrivalPos="135.86" arrivalSpeed="10.66" duration="35.00" routeLength="354.71" waitingTime="0.00" waitingCount="0" stopTime="0.00" timeLoss="4.52" rerouteNo="0" devices="tripinfo_0" vType="DEFAULT_VEHTYPE" speedFactor="0.79" vaporized=""/>
    <tripinfo id="1" depart="4.00" departLane="232079775#2_0" departPos="5.10" departSpeed="0.00" departDelay="0.40" arrival="41.00" arrivalLane="119238385#0_0" arrivalPos="144.87" arrivalSpeed="10.45" duration="37.00" routeLength="347.78" waitingTime="0.00" waitingCount="0" stopTime="0.00" timeLoss="4.88" rerouteNo="0" devices="tripinfo_1" vType="DEFAULT_VEHTYPE" speedFactor="0.79" vaporized=""/>
    <tripinfo id="2" depart="8.00" departLane="448266581#0_0" departPos="5.10" departSpeed="0.00" departDelay="0.80" arrival="55.00" arrivalLane="778823268#0_0" arrivalPos="238.22" arrivalSpeed="13.91" duration="47.00" routeLength="546.01" waitingTime="0.00" waitingCount="0" stopTime="0.00" timeLoss="8.53" rerouteNo="0" devices="tripinfo_2" vType="DEFAULT_VEHTYPE" speedFactor="1.03" vaporized=""/>
    <tripinfo id="12" depart="44.00" departLane="668307639#0_0" departPos="5.10" departSpeed="0.00" departDelay="0.80" arrival="78.00" arrivalLane="44499684#3_0" arrivalPos="84.04" arrivalSpeed="16.54" duration="34.00" routeLength="485.82" waitingTime="0.00" waitingCount="0" stopTime="0.00" timeLoss="5.41" rerouteNo="0" devices="tripinfo_12" vType="DEFAULT_VEHTYPE" speedFactor="1.04" vaporized=""/>
    <tripinfo id="10" depart="36.00" departLane="668307639#0_0" departPos="5.10" departSpeed="0.00" departDelay="0.00" arrival="79.00" arrivalLane="778823268#0_0" arrivalPos="238.22" arrivalSpeed="13.11" duration="43.00" routeLength="503.37" waitingTime="0.00" waitingCount="0" stopTime="0.00" timeLoss="8.29" rerouteNo="0" devices="tripinfo_10" vType="DEFAULT_VEHTYPE" speedFactor="0.99" vaporized=""/>
    <tripinfo id="15" depart="54.00" departLane="668307639#0_0" departPos="5.10" departSpeed="0.00" departDelay="0.00" arrival="101.00" arrivalLane="778823268#0_0" arrivalPos="238.22" arrivalSpeed="13.26" duration="47.00" routeLength="503.37" waitingTime="3.00" waitingCount="1" stopTime="0.00" timeLoss="12.62" rerouteNo="0" devices="tripinfo_15" vType="DEFAULT_VEHTYPE" speedFactor="1.01" vaporized=""/>
    <tripinfo id="20" depart="72.00" departLane="448266581#0_0" departPos="5.10" departSpeed="0.00" departDelay="0.00" arrival="102.00" arrivalLane="119238380#0_0" arrivalPos="135.86" arrivalSpeed="13.93" duration="30.00" routeLength="354.71" waitingTime="0.00" waitingCount="0" stopTime="0.00" timeLoss="6.26" rerouteNo="0" devices="tripinfo_20" vType="DEFAULT_VEHTYPE" speedFactor="1.02" vaporized=""/>
    <tripinfo id="17" depart="62.00" departLane="232079775#2_0" departPos="5.10" departSpeed="0.00" departDelay="0.80" arrival="108.00" arrivalLane="668307633#3_0" arrivalPos="112.63" arrivalSpeed="14.84" duration="46.00" routeLength="455.41" waitingTime="2.00" waitingCount="1" stopTime="0.00" timeLoss="13.54" rerouteNo="0" devices="tripinfo_17" vType="DEFAULT_VEHTYPE" speedFactor="0.95" vaporized=""/>
    <tripinfo id="25" depart="90.00" departLane="232079775#2_0" departPos="5.10" departSpeed="0.00" departDelay="0.00" arrival="125.00" arrivalLane="119238385#0_0" arrivalPos="144.87" arrivalSpeed="15.65" duration="35.00" routeLength="347.78" waitingTime="3.00" waitingCount="1" stopTime="0.00" timeLoss="13.53" rerouteNo="0" devices="tripinfo_25" vType="DEFAULT_VEHTYPE" speedFactor="1.21" vaporized=""/>
    <tripinfo id="24" depart="87.00" departLane="448266581#0_0" departPos="5.10" departSpeed="0.00" departDelay="0.60" arrival="132.00" arrivalLane="44499684#3_2" arrivalPos="84.04" arrivalSpeed="15.15" duration="45.00" routeLength="508.78" waitingTime="0.00" waitingCount="0" stopTime="0.00" timeLoss="8.46" rerouteNo="0" devices="tripinfo_24" vType="DEFAULT_VEHTYPE" speedFactor="0.96" vaporized=""/>
    <tripinfo id="27" depart="98.00" departLane="448266581#0_0" departPos="5.10" departSpeed="0.00" departDelay="0.80" arrival="145.00" arrivalLane="668307633#3_1" arrivalPos="112.63" arrivalSpeed="19.69" duration="47.00" routeLength="489.91" waitingTime="9.00" waitingCount="1" stopTime="0.00" timeLoss="22.09" rerouteNo="0" devices="tripinfo_27" vType="DEFAULT_VEHTYPE" speedFactor="1.19" vaporized=""/>
    <tripinfo id="4" depart="15.00" departLane="232079775#2_0" departPos="5.10" departSpeed="0.00" departDelay="0.60" arrival="147.00" arrivalLane="119238380#0_0" arrivalPos="135.86" arrivalSpeed="12.66" duration="132.00" routeLength="467.31" waitingTime="80.00" waitingCount="2" stopTime="0.00" timeLoss="97.77" rerouteNo="0" devices="tripinfo_4" vType="DEFAULT_VEHTYPE" speedFactor="1.00" vaporized=""/>
    <tripinfo id="3" depart="11.00" departLane="668307639#0_0" departPos="5.10" departSpeed="0.00" departDelay="0.20" arrival="149.00" arrivalLane="119238380#0_0" arrivalPos="135.86" arrivalSpeed="15.76" duration="138.00" routeLength="495.44" waitingTime="81.00" waitingCount="4" stopTime="0.00" timeLoss="108.93" rerouteNo="0" devices="tripinfo_3" vType="DEFAULT_VEHTYPE" speedFactor="1.17" vaporized=""/>
    <tripinfo id="7" depart="26.00" departLane="448266581#0_0" departPos="5.10" departSpeed="0.00" departDelay="0.80" arrival="149.00" arrivalLane="668307633#3_0" arrivalPos="112.63" arrivalSpeed="14.16" duration="123.00" routeLength="489.91" waitingTime="79.00" waitingCount="1" stopTime="0.00" timeLoss="88.87" rerouteNo="0" devices="tripinfo_7" vType="DEFAULT_VEHTYPE" speedFactor="0.86" vaporized=""/>
    <tripinfo id="5" depart="18.00" departLane="-778823268#1_0" departPos="5.10" departSpeed="0.00" departDelay="0.00" arrival="152.00" arrivalLane="668307633#3_1" arrivalPos="112.63" arrivalSpeed="15.80" duration="134.00" routeLength="595.69" waitingTime="82.00" waitingCount="1" stopTime="0.00" timeLoss="92.48" rerouteNo="0" devices="tripinfo_5" vType="DEFAULT_VEHTYPE" speedFactor="0.98" vaporized=""/>
    <tripinfo id="13" depart="47.00" departLane="-778823268#1_0" departPos="5.10" departSpeed="0.00" departDelay="0.20" arrival="152.00" arrivalLane="119238380#0_0" arrivalPos="135.86" arrivalSpeed="13.78" duration="105.00" routeLength="461.48" waitingTime="55.00" waitingCount="2" stopTime="0.00" timeLoss="72.22" rerouteNo="0" devices="tripinfo_13" vType="DEFAULT_VEHTYPE" speedFactor="1.03" vaporized=""/>
    <tripinfo id="6" depart="22.00" departLane="-778823268#1_0" departPos="5.10" departSpeed="0.00" departDelay="0.40" arrival="153.00" arrivalLane="119238385#0_0" arrivalPos="144.87" arrivalSpeed="11.39" duration="131.00" routeLength="522.97" waitingTime="71.00" waitingCount="3" stopTime="0.00" timeLoss="85.67" rerouteNo="0" devices="tripinfo_6" vType="DEFAULT_VEHTYPE" speedFactor="0.86" vaporized=""/>
    <tripinfo id="9" depart="33.00" departLane="668307639#0_0" departPos="5.10" departSpeed="0.00" departDelay="0.60" arrival="154.00" arrivalLane="119238380#0_0" arrivalPos="135.86" arrivalSpeed="15.81" duration="121.00" routeLength="497.82" waitingTime="65.00" waitingCount="3" stopTime="0.00" timeLoss="92.24" rerouteNo="0" devices="tripinfo_9" vType="DEFAULT_VEHTYPE" speedFactor="1.20" vaporized=""/>
    <tripinfo id="8" depart="29.00" departLane="-778823268#1_0" departPos="5.10" departSpeed="0.00" departDelay="0.20" arrival="155.00" arrivalLane="668307633#3_1" arrivalPos="112.63" arrivalSpeed="15.88" duration="126.00" routeLength="595.69" waitingTime="72.00" waitingCount="1" stopTime="0.00" timeLoss="83.87" rerouteNo="0" devices="tripinfo_8" vType="DEFAULT_VEHTYPE" speedFactor="0.97" vaporized=""/>
    <tripinfo id="16" depart="58.00" departLane="448266581#0_0" departPos="5.10" departSpeed="0.00" departDelay="0.40" arrival="155.00" arrivalLane="E1_1" arrivalPos="103.00" arrivalSpeed="11.21" duration="97.00" routeLength="448.81" waitingTime="39.00" waitingCount="3" stopTime="0.00" timeLoss="59.52" rerouteNo="0" devices="tripinfo_16" vType="DEFAULT_VEHTYPE" speedFactor="0.86" vaporized=""/>
    <tripinfo id="34" depart="123.00" departLane="232079775#2_0" departPos="5.10" departSpeed="0.00" departDelay="0.60" arrival="155.00" arrivalLane="119238385#0_0" arrivalPos="144.87" arrivalSpeed="14.52" duration="32.00" routeLength="347.78" waitingTime="0.00" waitingCount="0" stopTime="0.00" timeLoss="8.09" rerouteNo="0" devices="tripinfo_34" vType="DEFAULT_VEHTYPE" speedFactor="1.08" vaporized=""/>
    <tripinfo id="32" depart="116.00" departLane="668307639#0_0" departPos="5.10" departSpeed="0.00" departDelay="0.80" arrival="156.00" arrivalLane="778823268#0_0" arrivalPos="238.22" arrivalSpeed="14.47" duration="40.00" routeLength="503.37" waitingTime="0.00" waitingCount="0" stopTime="0.00" timeLoss="9.05" rerouteNo="0" devices="tripinfo_32" vType="DEFAULT_VEHTYPE" speedFactor="1.10" vaporized=""/>
    <tripinfo id="14" depart="51.00" departLane="668307639#0_0" departPos="5.10" departSpeed="0.00" departDelay="0.60" arrival="157.00" arrivalLane="668307633#3_1" arrivalPos="112.63" arrivalSpeed="16.25" duration="106.00" routeLength="623.09" waitingTime="50.00" waitingCount="1" stopTime="0.00" timeLoss="64.82" rerouteNo="0" devices="tripinfo_14" vType="DEFAULT_VEHTYPE" speedFactor="0.98" vaporized=""/>
    <tripinfo id="11" depart="40.00" departLane="232079775#2_0" departPos="5.10" departSpeed="0.00" departDelay="0.40" arrival="160.00" arrivalLane="119238380#0_0" arrivalPos="135.86" arrivalSpeed="11.80" duration="120.00" routeLength="467.31" waitingTime="63.00" waitingCount="2" stopTime="0.00" timeLoss="83.23" rerouteNo="0" devices="tripinfo_11" vType="DEFAULT_VEHTYPE" speedFactor="0.94" vaporized=""/>
    <tripinfo id="21" depart="76.00" departLane="-778823268#1_0" departPos="5.10" departSpeed="0.00" departDelay="0.40" arrival="161.00" arrivalLane="119238385#0_0" arrivalPos="144.87" arrivalSpeed="14.67" duration="85.00" routeLength="522.97" waitingTime="27.00" waitingCount="2" stopTime="0.00" timeLoss="49.57" rerouteNo="0" devices="tripinfo_21" vType="DEFAULT_VEHTYPE" speedFactor="1.10" vaporized=""/>
    <tripinfo id="29" depart="105.00" departLane="-778823268#1_0" departPos="5.10" departSpeed="0.00" departDelay="0.60" arrival="165.00" arrivalLane="44499684#3_0" arrivalPos="84.04" arrivalSpeed="19.21" duration="60.00" routeLength="453.00" waitingTime="8.00" waitingCount="1" stopTime="0.00" timeLoss="32.59" rerouteNo="0" devices="tripinfo_29" vType="DEFAULT_VEHTYPE" speedFactor="1.16" vaporized=""/>
    <tripinfo id="35" depart="126.00" departLane="-778823268#1_0" departPos="5.10" departSpeed="0.00" departDelay="0.00" arrival="168.00" arrivalLane="E1_0" arrivalPos="103.00" arrivalSpeed="10.00" duration="42.00" routeLength="369.88" waitingTime="0.00" waitingCount="0" stopTime="0.00" timeLoss="7.63" rerouteNo="0" devices="tripinfo_35" vType="DEFAULT_VEHTYPE" speedFactor="0.80" vaporized=""/>
    <tripinfo id="22" depart="80.00" departLane="-778823268#1_0" departPos="5.10" departSpeed="0.00" departDelay="0.80" arrival="169.00" arrivalLane="119238385#0_0" arrivalPos="144.87" arrivalSpeed="13.36" duration="89.00" routeLength="522.97" waitingTime="23.00" waitingCount="3" stopTime="0.00" timeLoss="49.91" rerouteNo="0" devices="tripinfo_22" vType="DEFAULT_VEHTYPE" speedFactor="0.99" vaporized=""/>
    <tripinfo id="33" depart="119.00" departLane="-778823268#1_0" departPos="5.10" departSpeed="0.00" departDelay="0.20" arrival="172.00" arrivalLane="119238380#0_0" arrivalPos="135.86" arrivalSpeed="11.44" duration="53.00" routeLength="461.48" waitingTime="0.00" waitingCount="0" stopTime="0.00" timeLoss="13.87" rerouteNo="0" devices="tripinfo_33" vType="DEFAULT_VEHTYPE" speedFactor="0.87" vaporized=""/>
    <tripinfo id="19" depart="69.00" departLane="668307639#0_0" departPos="5.10" departSpeed="0.00" departDelay="0.60" arrival="174.00" arrivalLane="668307633#3_1" arrivalPos="112.63" arrivalSpeed="12.44" duration="105.00" routeLength="625.14" waitingTime="43.00" waitingCount="1" stopTime="0.00" timeLoss="54.75" rerouteNo="0" devices="tripinfo_19" vType="DEFAULT_VEHTYPE" speedFactor="0.80" vaporized=""/>
    <tripinfo id="23" depart="83.00" departLane="-778823268#1_0" departPos="5.10" departSpeed="0.00" departDelay="0.20" arrival="174.00" arrivalLane="119238385#0_0" arrivalPos="144.87" arrivalSpeed="11.24" duration="91.00" routeLength="522.97" waitingTime="21.00" waitingCount="2" stopTime="0.00" timeLoss="47.21" rerouteNo="0" devices="tripinfo_23" vType="DEFAULT_VEHTYPE" speedFactor="0.89" vaporized=""/>
    <tripinfo id="18" depart="65.00" departLane="668307639#0_0" departPos="5.10" departSpeed="0.00" departDelay="0.20" arrival="175.00" arrivalLane="668307633#3_0" arrivalPos="112.63" arrivalSpeed="14.66" duration="110.00" routeLength="623.09" waitingTime="48.00" waitingCount="2" stopTime="0.00" timeLoss="64.27" rerouteNo="0" devices="tripinfo_18" vType="DEFAULT_VEHTYPE" speedFactor="0.89" vaporized=""/>
    <tripinfo id="30" depart="108.00" departLane="668307639#0_0" departPos="5.10" departSpeed="0.00" departDelay="0.00" arrival="176.00" arrivalLane="668307633#3_1" arrivalPos="112.63" arrivalSpeed="13.78" duration="68.00" routeLength="623.09" waitingTime="8.00" waitingCount="1" stopTime="0.00" timeLoss="19.82" rerouteNo="0" devices="tripinfo_30" vType="DEFAULT_VEHTYPE" speedFactor="0.84" vaporized=""/>
    <tripinfo id="39" depart="141.00" departLane="232079775#2_0" departPos="5.10" departSpeed="0.00" departDelay="0.60" arrival="178.00" arrivalLane="119238385#0_0" arrivalPos="144.87" arrivalSpeed="10.44" duration="37.00" routeLength="347.78" waitingTime="0.00" waitingCount="0" stopTime="0.00" timeLoss="5.52" rerouteNo="0" devices="tripinfo_39" vType="DEFAULT_VEHTYPE" speedFactor="0.81" vaporized=""/>
    <tripinfo id="36" depart="130.00" departLane="668307639#0_0" departPos="5.10" departSpeed="0.00" departDelay="0.40" arrival="183.00" arrivalLane="119238385#0_0" arrivalPos="144.87" arrivalSpeed="14.89" duration="53.00" routeLength="556.93" waitingTime="3.00" waitingCount="2" stopTime="0.00" timeLoss="17.77" rerouteNo="0" devices="tripinfo_36" vType="DEFAULT_VEHTYPE" speedFactor="1.10" vaporized=""/>
    <tripinfo id="42" depart="152.00" departLane="232079775#2_0" departPos="5.10" departSpeed="0.00" departDelay="0.80" arrival="188.00" arrivalLane="119238385#0_0" arrivalPos="144.87" arrivalSpeed="13.54" duration="36.00" routeLength="347.78" waitingTime="2.00" waitingCount="1" stopTime="0.00" timeLoss="10.73" rerouteNo="0" devices="tripinfo_42" vType="DEFAULT_VEHTYPE" speedFactor="1.01" vaporized=""/>
    <tripinfo id="38" depart="137.00" departLane="668307639#0_0" departPos="5.10" departSpeed="0.00" departDelay="0.20" arrival="192.00" arrivalLane="44499684#3_0" arrivalPos="84.04" arrivalSpeed="17.39" duration="55.00" routeLength="485.82" waitingTime="17.00" waitingCount="1" stopTime="0.00" timeLoss="26.92" rerouteNo="0" devices="tripinfo_38" vType="DEFAULT_VEHTYPE" speedFactor="1.06" vaporized=""/>
    <tripinfo id="26" depart="94.00" departLane="232079775#2_0" departPos="5.10" departSpeed="0.00" departDelay="0.40" arrival="197.00" arrivalLane="E1_1" arrivalPos="103.00" arrivalSpeed="15.49" duration="103.00" routeLength="382.90" waitingTime="61.00" waitingCount="1" stopTime="0.00" timeLoss="78.01" rerouteNo="0" devices="tripinfo_26" vType="DEFAULT_VEHTYPE" speedFactor="1.16" vaporized=""/>
    <tripinfo id="40" depart="144.00" departLane="448266581#0_0" departPos="5.10" departSpeed="0.00" departDelay="0.00" arrival="198.00" arrivalLane="119238385#0_0" arrivalPos="144.87" arrivalSpeed="17.12" duration="54.00" routeLength="416.20" waitingTime="17.00" waitingCount="1" stopTime="0.00" timeLoss="31.75" rerouteNo="0" devices="tripinfo_40" vType="DEFAULT_VEHTYPE" speedFactor="1.30" vaporized=""/>
    <tripinfo id="28" depart="101.00" departLane="-778823268#1_0" departPos="5.10" departSpeed="0.00" departDelay="0.20" arrival="205.00" arrivalLane="778823268#0_0" arrivalPos="238.22" arrivalSpeed="12.56" duration="104.00" routeLength="655.26" waitingTime="33.00" waitingCount="2" stopTime="0.00" timeLoss="53.06" rerouteNo="0" devices="tripinfo_28" vType="DEFAULT_VEHTYPE" speedFactor="0.95" vaporized=""/>
    <tripinfo id="31" depart="112.00" departLane="448266581#0_0" departPos="5.10" departSpeed="0.00" departDelay="0.40" arrival="212.00" arrivalLane="778823268#0_0" arrivalPos="238.22" arrivalSpeed="14.49" duration="100.00" routeLength="546.01" waitingTime="49.00" waitingCount="1" stopTime="0.00" timeLoss="62.62" rerouteNo="0" devices="tripinfo_31" vType="DEFAULT_VEHTYPE" speedFactor="1.06" vaporized=""/>
    <tripinfo id="37" depart="134.00" departLane="448266581#0_0" departPos="5.10" departSpeed="0.00" departDelay="0.80" arrival="212.00" arrivalLane="44499684#3_2" arrivalPos="84.04" arrivalSpeed="16.42" duration="78.00" routeLength="510.14" waitingTime="26.00" waitingCount="1" stopTime="0.00" timeLoss="43.05" rerouteNo="0" devices="tripinfo_37" vType="DEFAULT_VEHTYPE" speedFactor="1.00" vaporized=""/>
    <tripinfo id="41" depart="148.00" departLane="448266581#0_0" departPos="5.10" departSpeed="0.00" departDelay="0.40" arrival="213.00" arrivalLane="E1_1" arrivalPos="103.00" arrivalSpeed="12.15" duration="65.00" routeLength="447.86" waitingTime="13.00" waitingCount="1" stopTime="0.00" timeLoss="30.00" rerouteNo="0" devices="tripinfo_41" vType="DEFAULT_VEHTYPE" speedFactor="0.91" vaporized=""/>
    <tripinfo id="47" depart="170.00" departLane="-778823268#1_0" departPos="5.10" departSpeed="0.00" departDelay="0.80" arrival="216.00" arrivalLane="44499684#3_0" arrivalPos="84.04" arrivalSpeed="14.33" duration="46.00" routeLength="453.00" waitingTime="0.00" waitingCount="0" stopTime="0.00" timeLoss="10.94" rerouteNo="0" devices="tripinfo_47" vType="DEFAULT_VEHTYPE" speedFactor="0.90" vaporized=""/>
    <tripinfo id="51" depart="184.00" departLane="448266581#0_0" departPos="5.10" departSpeed="0.00" departDelay="0.40" arrival="222.00" arrivalLane="668307633#3_0" arrivalPos="112.63" arrivalSpeed="14.69" duration="38.00" routeLength="489.91" waitingTime="0.00" waitingCount="0" stopTime="0.00" timeLoss="4.81" rerouteNo="0" devices="tripinfo_51" vType="DEFAULT_VEHTYPE" speedFactor="0.90" vaporized=""/>
    <tripinfo id="44" depart="159.00" departLane="-778823268#1_0" departPos="5.10" departSpeed="0.00" departDelay="0.60" arrival="223.00" arrivalLane="119238380#0_0" arrivalPos="135.86" arrivalSpeed="10.86" duration="64.00" routeLength="461.48" waitingTime="13.00" waitingCount="1" stopTime="0.00" timeLoss="22.12" rerouteNo="0" devices="tripinfo_44" vType="DEFAULT_VEHTYPE" speedFactor="0.82" vaporized=""/>
    <tripinfo id="45" depart="162.00" departLane="-778823268#1_0" departPos="5.10" departSpeed="0.00" departDelay="0.00" arrival="226.00" arrivalLane="668307633#3_1" arrivalPos="112.63" arrivalSpeed="16.28" duration="64.00" routeLength="595.69" waitingTime="13.00" waitingCount="1" stopTime="0.00" timeLoss="24.55" rerouteNo="0" devices="tripinfo_45" vType="DEFAULT_VEHTYPE" speedFactor="1.03" vaporized=""/>
    <tripinfo id="49" depart="177.00" departLane="668307639#0_0" departPos="5.10" departSpeed="0.00" departDelay="0.60" arrival="226.00" arrivalLane="E1_1" arrivalPos="103.00" arrivalSpeed="12.62" duration="49.00" routeLength="411.03" waitingTime="5.00" waitingCount="1" stopTime="0.00" timeLoss="18.79" rerouteNo="0" devices="tripinfo_49" vType="DEFAULT_VEHTYPE" speedFactor="0.93" vaporized=""/>
    <tripinfo id="52" depart="188.00" departLane="232079775#2_0" departPos="5.10" departSpeed="0.00" departDelay="0.80" arrival="226.00" arrivalLane="668307633#3_0" arrivalPos="112.63" arrivalSpeed="17.21" duration="38.00" routeLength="455.41" waitingTime="0.00" waitingCount="0" stopTime="0.00" timeLoss="9.64" rerouteNo="0" devices="tripinfo_52" vType="DEFAULT_VEHTYPE" speedFactor="1.08" vaporized=""/>
    <tripinfo id="53" depart="191.00" departLane="-778823268#1_0" departPos="5.10" departSpeed="0.00" departDelay="0.20" arrival="230.00" arrivalLane="44499684#3_0" arrivalPos="84.04" arrivalSpeed="16.81" duration="39.00" routeLength="453.00" waitingTime="0.00" waitingCount="0" stopTime="0.00" timeLoss="8.31" rerouteNo="0" devices="tripinfo_53" vType="DEFAULT_VEHTYPE" speedFactor="1.02" vaporized=""/>
    <tripinfo id="54" depart="195.00" departLane="232079775#2_0" departPos="5.10" departSpeed="0.00" departDelay="0.60" arrival="245.00" arrivalLane="E1_1" arrivalPos="103.00" arrivalSpeed="14.60" duration="50.00" routeLength="382.90" waitingTime="8.00" waitingCount="2" stopTime="0.00" timeLoss="24.24" rerouteNo="0" devices="tripinfo_54" vType="DEFAULT_VEHTYPE" speedFactor="1.11" vaporized=""/>
    <tripinfo id="55" depart="198.00" departLane="668307639#0_0" departPos="5.10" departSpeed="0.00" departDelay="0.00" arrival="247.00" arrivalLane="119238385#0_0" arrivalPos="144.87" arrivalSpeed="13.46" duration="49.00" routeLength="556.93" waitingTime="0.00" waitingCount="0" stopTime="0.00" timeLoss="8.50" rerouteNo="0" devices="tripinfo_55" vType="DEFAULT_VEHTYPE" speedFactor="0.97" vaporized=""/>
    <tripinfo id="58" depart="209.00" departLane="232079775#2_0" departPos="5.10" departSpeed="0.00" departDelay="0.20" arrival="248.00" arrivalLane="668307633#3_0" arrivalPos="112.63" arrivalSpeed="16.44" duration="39.00" routeLength="455.41" waitingTime="0.00" waitingCount="0" stopTime="0.00" timeLoss="8.71" rerouteNo="0" devices="tripinfo_58" vType="DEFAULT_VEHTYPE" speedFactor="1.02" vaporized=""/>
    <tripinfo id="50" depart="180.00" departLane="-778823268#1_0" departPos="5.10" departSpeed="0.00" departDelay="0.00" arrival="257.00" arrivalLane="778823268#0_0" arrivalPos="238.22" arrivalSpeed="11.62" duration="77.00" routeLength="655.26" waitingTime="7.00" waitingCount="1" stopTime="0.00" timeLoss="19.22" rerouteNo="0" devices="tripinfo_50" vType="DEFAULT_VEHTYPE" speedFactor="0.84" vaporized=""/>
    <tripinfo id="62" depart="224.00" departLane="-778823268#1_0" departPos="5.10" departSpeed="0.00" departDelay="0.80" arrival="263.00" arrivalLane="119238385#0_0" arrivalPos="144.87" arrivalSpeed="15.77" duration="39.00" routeLength="522.97" waitingTime="0.00" waitingCount="0" stopTime="0.00" timeLoss="6.40" rerouteNo="0" devices="tripinfo_62" vType="DEFAULT_VEHTYPE" speedFactor="1.20" vaporized=""/>
    <tripinfo id="63" depart="227.00" departLane="-778823268#1_0" departPos="5.10" departSpeed="0.00" departDelay="0.20" arrival="264.00" arrivalLane="E1_0" arrivalPos="103.00" arrivalSpeed="11.85" duration="37.00" routeLength="369.88" waitingTime="0.00" waitingCount="0" stopTime="0.00" timeLoss="5.22" rerouteNo="0" devices="tripinfo_63" vType="DEFAULT_VEHTYPE" speedFactor="0.86" vaporized=""/>
    <tripinfo id="46" depart="166.00" departLane="668307639#0_0" departPos="5.10" departSpeed="0.00" departDelay="0.40" arrival="270.00" arrivalLane="44499684#3_0" arrivalPos="84.04" arrivalSpeed="13.94" duration="104.00" routeLength="485.82" waitingTime="54.00" waitingCount="2" stopTime="0.00" timeLoss="68.60" rerouteNo="0" devices="tripinfo_46" vType="DEFAULT_VEHTYPE" speedFactor="0.85" vaporized=""/>
    <tripinfo id="57" depart="206.00" departLane="668307639#0_0" departPos="5.10" departSpeed="0.00" departDelay="0.80" arrival="270.00" arrivalLane="E1_1" arrivalPos="103.00" arrivalSpeed="12.25" duration="64.00" routeLength="411.03" waitingTime="23.00" waitingCount="1" stopTime="0.00" timeLoss="33.82" rerouteNo="0" devices="tripinfo_57" vType="DEFAULT_VEHTYPE" speedFactor="0.94" vaporized=""/>
    <tripinfo id="64" depart="231.00" departLane="668307639#0_0" departPos="5.10" departSpeed="0.00" departDelay="0.60" arrival="275.00" arrivalLane="778823268#0_0" arrivalPos="238.22" arrivalSpeed="13.27" duration="44.00" routeLength="503.37" waitingTime="0.00" waitingCount="0" stopTime="0.00" timeLoss="10.83" rerouteNo="0" devices="tripinfo_64" vType="DEFAULT_VEHTYPE" speedFactor="1.04" vaporized=""/>
    <tripinfo id="59" depart="213.00" departLane="448266581#0_0" departPos="5.10" departSpeed="0.00" departDelay="0.60" arrival="276.00" arrivalLane="119238380#0_0" arrivalPos="135.86" arrivalSpeed="12.42" duration="63.00" routeLength="356.22" waitingTime="23.00" waitingCount="2" stopTime="0.00" timeLoss="35.80" rerouteNo="0" devices="tripinfo_59" vType="DEFAULT_VEHTYPE" speedFactor="0.92" vaporized=""/>
    <tripinfo id="67" depart="242.00" departLane="-778823268#1_0" departPos="5.10" departSpeed="0.00" departDelay="0.80" arrival="278.00" arrivalLane="44499684#3_0" arrivalPos="84.04" arrivalSpeed="19.39" duration="36.00" routeLength="453.00" waitingTime="0.00" waitingCount="0" stopTime="0.00" timeLoss="10.45" rerouteNo="0" devices="tripinfo_67" vType="DEFAULT_VEHTYPE" speedFactor="1.20" vaporized=""/>
    <tripinfo id="56" depart="202.00" departLane="448266581#0_0" departPos="5.10" departSpeed="0.00" departDelay="0.40" arrival="279.00" arrivalLane="119238385#0_0" arrivalPos="144.87" arrivalSpeed="11.98" duration="77.00" routeLength="413.39" waitingTime="33.00" waitingCount="1" stopTime="0.00" timeLoss="43.07" rerouteNo="0" devices="tripinfo_56" vType="DEFAULT_VEHTYPE" speedFactor="0.87" vaporized=""/>
    <tripinfo id="66" depart="238.00" departLane="668307639#0_0" departPos="5.10" departSpeed="0.00" departDelay="0.40" arrival="281.00" arrivalLane="E1_1" arrivalPos="103.00" arrivalSpeed="12.70" duration="43.00" routeLength="413.41" waitingTime="2.00" waitingCount="1" stopTime="0.00" timeLoss="14.05" rerouteNo="0" devices="tripinfo_66" vType="DEFAULT_VEHTYPE" speedFactor="0.97" vaporized=""/>
    <tripinfo id="70" depart="252.00" departLane="232079775#2_0" departPos="5.10" departSpeed="0.00" departDelay="0.00" arrival="290.00" arrivalLane="668307633#3_0" arrivalPos="112.63" arrivalSpeed="16.38" duration="38.00" routeLength="455.41" waitingTime="0.00" waitingCount="0" stopTime="0.00" timeLoss="8.43" rerouteNo="0" devices="tripinfo_70" vType="DEFAULT_VEHTYPE" speedFactor="1.01" vaporized=""/>
    <tripinfo id="72" depart="260.00" departLane="232079775#2_0" departPos="5.10" departSpeed="0.00" departDelay="0.80" arrival="292.00" arrivalLane="119238385#0_0" arrivalPos="144.87" arrivalSpeed="12.15" duration="32.00" routeLength="347.78" waitingTime="0.00" waitingCount="0" stopTime="0.00" timeLoss="5.68" rerouteNo="0" devices="tripinfo_72" vType="DEFAULT_VEHTYPE" speedFactor="0.95" vaporized=""/>
    <tripinfo id="69" depart="249.00" departLane="668307639#0_0" departPos="5.10" departSpeed="0.00" departDelay="0.60" arrival="294.00" arrivalLane="119238380#0_0" arrivalPos="135.86" arrivalSpeed="11.69" duration="45.00" routeLength="495.44" waitingTime="0.00" waitingCount="0" stopTime="0.00" timeLoss="7.73" rerouteNo="0" devices="tripinfo_69" vType="DEFAULT_VEHTYPE" speedFactor="0.92" vaporized=""/>
    <tripinfo id="43" depart="155.00" departLane="668307639#0_0" departPos="5.10" departSpeed="0.00" departDelay="0.20" arrival="298.00" arrivalLane="668307633#3_0" arrivalPos="112.63" arrivalSpeed="16.47" duration="143.00" routeLength="623.09" waitingTime="77.00" waitingCount="3" stopTime="0.00" timeLoss="103.50" rerouteNo="0" devices="tripinfo_43" vType="DEFAULT_VEHTYPE" speedFactor="1.03" vaporized=""/>
    <tripinfo id="48" depart="173.00" departLane="668307639#0_0" departPos="5.10" departSpeed="0.00" departDelay="0.20" arrival="299.00" arrivalLane="668307633#3_1" arrivalPos="112.63" arrivalSpeed="14.34" duration="126.00" routeLength="625.14" waitingTime="53.00" waitingCount="3" stopTime="0.00" timeLoss="81.14" rerouteNo="0" devices="tripinfo_48" vType="DEFAULT_VEHTYPE" speedFactor="0.90" vaporized=""/>
    <tripinfo id="60" depart="216.00" departLane="668307639#0_0" departPos="5.10" departSpeed="0.00" departDelay="0.00" arrival="299.00" arrivalLane="668307633#3_0" arrivalPos="112.63" arrivalSpeed="18.40" duration="83.00" routeLength="625.14" waitingTime="28.00" waitingCount="2" stopTime="0.00" timeLoss="47.54" rerouteNo="0" devices="tripinfo_60" vType="DEFAULT_VEHTYPE" speedFactor="1.14" vaporized=""/>