<?xml version="1.0" encoding="UTF-8"?>

<!-- generated on 2024-08-31 19:38:05 by Eclipse SUMO sumo Version 1.20.0
<configuration xmlns:xsi="http://www.w3.org/2001/XMLSchema-instance" xsi:noNamespaceSchemaLocation="http://sumo.dlr.de/xsd/sumoConfiguration.xsd">

    <input>
        <net-file value="c:\self\School\Master\Disertation\code\RESCO\resco_benchmark\environments/romana/osm.net.xml.gz"/>
        <route-files value="c:\self\School\Master\Disertation\code\RESCO\resco_benchmark\environments/romana/osm.passenger.trips.xml"/>
        <additional-files value="c:\self\School\Master\Disertation\code\RESCO\resco_benchmark\environments/romana/osm.poly.xml.gz"/>
    </input>

    <output>
        <tripinfo-output value="C:\self\School\Master\Disertation\code\RESCO\results\IPPO-tr0-romana-0-drq_norm-wait_norm\tripinfo_43.xml"/>
        <tripinfo-output.write-unfinished value="true"/>
    </output>

    <processing>
        <ignore-route-errors value="true"/>
        <time-to-teleport value="-1"/>
    </processing>

    <routing>
        <device.rerouting.adaptation-steps value="18"/>
        <device.rerouting.adaptation-interval value="10"/>
    </routing>

    <report>
        <verbose value="true"/>
        <no-warnings value="True"/>
        <duration-log.statistics value="true"/>
        <no-step-log value="True"/>
    </report>

    <traci_server>
        <remote-port value="59851"/>
    </traci_server>

    <random_number>
        <random value="true"/>
    </random_number>

    <gui_only>
        <gui-settings-file value="c:\self\School\Master\Disertation\code\RESCO\resco_benchmark\environments/romana/osm.view.xml"/>
    </gui_only>

</configuration>
-->

<tripinfos xmlns:xsi="http://www.w3.org/2001/XMLSchema-instance" xsi:noNamespaceSchemaLocation="http://sumo.dlr.de/xsd/tripinfo_file.xsd">
    <tripinfo id="1" depart="4.00" departLane="232079775#2_0" departPos="5.10" departSpeed="0.00" departDelay="0.40" arrival="41.00" arrivalLane="119238385#0_0" arrivalPos="144.87" arrivalSpeed="10.36" duration="37.00" routeLength="347.78" waitingTime="0.00" waitingCount="0" stopTime="0.00" timeLoss="5.56" rerouteNo="0" devices="tripinfo_1" vType="DEFAULT_VEHTYPE" speedFactor="0.82" vaporized=""/>
    <tripinfo id="0" depart="0.00" departLane="448266581#0_0" departPos="5.10" departSpeed="0.00" departDelay="0.00" arrival="45.00" arrivalLane="119238380#0_0" arrivalPos="135.86" arrivalSpeed="12.82" duration="45.00" routeLength="354.71" waitingTime="9.00" waitingCount="1" stopTime="0.00" timeLoss="21.38" rerouteNo="0" devices="tripinfo_0" vType="DEFAULT_VEHTYPE" speedFactor="1.01" vaporized=""/>
    <tripinfo id="2" depart="8.00" departLane="448266581#0_0" departPos="5.10" departSpeed="0.00" departDelay="0.80" arrival="66.00" arrivalLane="778823268#0_0" arrivalPos="238.22" arrivalSpeed="12.73" duration="58.00" routeLength="547.37" waitingTime="1.00" waitingCount="1" stopTime="0.00" timeLoss="16.61" rerouteNo="0" devices="tripinfo_2" vType="DEFAULT_VEHTYPE" speedFactor="0.95" vaporized=""/>
    <tripinfo id="10" depart="36.00" departLane="668307639#0_0" departPos="5.10" departSpeed="0.00" departDelay="0.00" arrival="76.00" arrivalLane="778823268#0_0" arrivalPos="238.22" arrivalSpeed="15.08" duration="40.00" routeLength="503.37" waitingTime="0.00" waitingCount="0" stopTime="0.00" timeLoss="9.45" rerouteNo="0" devices="tripinfo_10" vType="DEFAULT_VEHTYPE" speedFactor="1.11" vaporized=""/>
    <tripinfo id="12" depart="44.00" departLane="668307639#0_0" departPos="5.10" departSpeed="0.00" departDelay="0.80" arrival="79.00" arrivalLane="44499684#3_0" arrivalPos="84.04" arrivalSpeed="16.62" duration="35.00" routeLength="485.82" waitingTime="0.00" waitingCount="0" stopTime="0.00" timeLoss="5.51" rerouteNo="0" devices="tripinfo_12" vType="DEFAULT_VEHTYPE" speedFactor="1.03" vaporized=""/>
    <tripinfo id="4" depart="15.00" departLane="232079775#2_0" departPos="5.10" departSpeed="0.00" departDelay="0.60" arrival="95.00" arrivalLane="119238380#0_0" arrivalPos="135.86" arrivalSpeed="12.96" duration="80.00" routeLength="467.31" waitingTime="31.00" waitingCount="1" stopTime="0.00" timeLoss="45.68" rerouteNo="0" devices="tripinfo_4" vType="DEFAULT_VEHTYPE" speedFactor="0.99" vaporized=""/>
    <tripinfo id="3" depart="11.00" departLane="668307639#0_0" departPos="5.10" departSpeed="0.00" departDelay="0.20" arrival="98.00" arrivalLane="119238380#0_0" arrivalPos="135.86" arrivalSpeed="16.02" duration="87.00" routeLength="495.44" waitingTime="35.00" waitingCount="2" stopTime="0.00" timeLoss="58.62" rerouteNo="0" devices="tripinfo_3" vType="DEFAULT_VEHTYPE" speedFactor="1.18" vaporized=""/>
    <tripinfo id="15" depart="54.00" departLane="668307639#0_0" departPos="5.10" departSpeed="0.00" departDelay="0.00" arrival="98.00" arrivalLane="778823268#0_0" arrivalPos="238.22" arrivalSpeed="15.69" duration="44.00" routeLength="503.37" waitingTime="5.00" waitingCount="1" stopTime="0.00" timeLoss="14.65" rerouteNo="0" devices="tripinfo_15" vType="DEFAULT_VEHTYPE" speedFactor="1.16" vaporized=""/>
    <tripinfo id="13" depart="47.00" departLane="-778823268#1_0" departPos="5.10" departSpeed="0.00" departDelay="0.20" arrival="102.00" arrivalLane="119238380#0_0" arrivalPos="135.86" arrivalSpeed="13.40" duration="55.00" routeLength="461.48" waitingTime="8.00" waitingCount="1" stopTime="0.00" timeLoss="21.91" rerouteNo="0" devices="tripinfo_13" vType="DEFAULT_VEHTYPE" speedFactor="1.04" vaporized=""/>
    <tripinfo id="17" depart="62.00" departLane="232079775#2_0" departPos="5.10" departSpeed="0.00" departDelay="0.80" arrival="103.00" arrivalLane="668307633#3_0" arrivalPos="112.63" arrivalSpeed="15.44" duration="41.00" routeLength="455.41" waitingTime="0.00" waitingCount="0" stopTime="0.00" timeLoss="8.52" rerouteNo="0" devices="tripinfo_17" vType="DEFAULT_VEHTYPE" speedFactor="0.96" vaporized=""/>
    <tripinfo id="6" depart="22.00" departLane="-778823268#1_0" departPos="5.10" departSpeed="0.00" departDelay="0.40" arrival="104.00" arrivalLane="119238385#0_0" arrivalPos="144.87" arrivalSpeed="13.50" duration="82.00" routeLength="522.97" waitingTime="28.00" waitingCount="1" stopTime="0.00" timeLoss="42.50" rerouteNo="0" devices="tripinfo_6" vType="DEFAULT_VEHTYPE" speedFactor="0.99" vaporized=""/>
    <tripinfo id="25" depart="90.00" departLane="232079775#2_0" departPos="5.10" departSpeed="0.00" departDelay="0.00" arrival="121.00" arrivalLane="119238385#0_0" arrivalPos="144.87" arrivalSpeed="13.64" duration="31.00" routeLength="347.78" waitingTime="0.00" waitingCount="0" stopTime="0.00" timeLoss="6.27" rerouteNo="0" devices="tripinfo_25" vType="DEFAULT_VEHTYPE" speedFactor="1.05" vaporized=""/>
    <tripinfo id="20" depart="72.00" departLane="448266581#0_0" departPos="5.10" departSpeed="0.00" departDelay="0.00" arrival="126.00" arrivalLane="119238380#0_0" arrivalPos="135.86" arrivalSpeed="11.39" duration="54.00" routeLength="354.71" waitingTime="15.00" waitingCount="1" stopTime="0.00" timeLoss="24.67" rerouteNo="0" devices="tripinfo_20" vType="DEFAULT_VEHTYPE" speedFactor="0.84" vaporized=""/>
    <tripinfo id="5" depart="18.00" departLane="-778823268#1_0" departPos="5.10" departSpeed="0.00" departDelay="0.00" arrival="147.00" arrivalLane="668307633#3_1" arrivalPos="112.63" arrivalSpeed="17.21" duration="129.00" routeLength="595.69" waitingTime="72.00" waitingCount="2" stopTime="0.00" timeLoss="91.06" rerouteNo="0" devices="tripinfo_5" vType="DEFAULT_VEHTYPE" speedFactor="1.09" vaporized=""/>
    <tripinfo id="8" depart="29.00" departLane="-778823268#1_0" departPos="5.10" departSpeed="0.00" departDelay="0.20" arrival="148.00" arrivalLane="668307633#3_2" arrivalPos="112.63" arrivalSpeed="16.21" duration="119.00" routeLength="595.69" waitingTime="59.00" waitingCount="2" stopTime="0.00" timeLoss="79.45" rerouteNo="0" devices="tripinfo_8" vType="DEFAULT_VEHTYPE" speedFactor="1.03" vaporized=""/>
    <tripinfo id="29" depart="105.00" departLane="-778823268#1_0" departPos="5.10" departSpeed="0.00" departDelay="0.60" arrival="148.00" arrivalLane="44499684#3_0" arrivalPos="84.04" arrivalSpeed="14.22" duration="43.00" routeLength="453.00" waitingTime="0.00" waitingCount="0" stopTime="0.00" timeLoss="7.57" rerouteNo="0" devices="tripinfo_29" vType="DEFAULT_VEHTYPE" speedFactor="0.89" vaporized=""/>
    <tripinfo id="7" depart="26.00" departLane="448266581#0_0" departPos="5.10" departSpeed="0.00" departDelay="0.80" arrival="150.00" arrivalLane="668307633#3_0" arrivalPos="112.63" arrivalSpeed="13.08" duration="124.00" routeLength="489.91" waitingTime="78.00" waitingCount="1" stopTime="0.00" timeLoss="89.28" rerouteNo="0" devices="tripinfo_7" vType="DEFAULT_VEHTYPE" speedFactor="0.86" vaporized=""/>
    <tripinfo id="27" depart="98.00" departLane="448266581#0_0" departPos="5.10" departSpeed="0.00" departDelay="0.80" arrival="151.00" arrivalLane="668307633#3_0" arrivalPos="112.63" arrivalSpeed="16.42" duration="53.00" routeLength="489.91" waitingTime="10.00" waitingCount="1" stopTime="0.00" timeLoss="23.37" rerouteNo="0" devices="tripinfo_27" vType="DEFAULT_VEHTYPE" speedFactor="1.00" vaporized=""/>
    <tripinfo id="34" depart="123.00" departLane="232079775#2_0" departPos="5.10" departSpeed="0.00" departDelay="0.60" arrival="153.00" arrivalLane="119238385#0_0" arrivalPos="144.87" arrivalSpeed="14.73" duration="30.00" routeLength="347.78" waitingTime="0.00" waitingCount="0" stopTime="0.00" timeLoss="6.80" rerouteNo="0" devices="tripinfo_34" vType="DEFAULT_VEHTYPE" speedFactor="1.10" vaporized=""/>
    <tripinfo id="32" depart="116.00" departLane="668307639#0_0" departPos="5.10" departSpeed="0.00" departDelay="0.80" arrival="161.00" arrivalLane="778823268#0_0" arrivalPos="238.22" arrivalSpeed="13.23" duration="45.00" routeLength="503.37" waitingTime="0.00" waitingCount="0" stopTime="0.00" timeLoss="9.02" rerouteNo="0" devices="tripinfo_32" vType="DEFAULT_VEHTYPE" speedFactor="0.96" vaporized=""/>
    <tripinfo id="35" depart="126.00" departLane="-778823268#1_0" departPos="5.10" departSpeed="0.00" departDelay="0.00" arrival="173.00" arrivalLane="E1_0" arrivalPos="103.00" arrivalSpeed="11.56" duration="47.00" routeLength="369.88" waitingTime="6.00" waitingCount="1" stopTime="0.00" timeLoss="16.57" rerouteNo="0" devices="tripinfo_35" vType="DEFAULT_VEHTYPE" speedFactor="0.90" vaporized=""/>
    <tripinfo id="39" depart="141.00" departLane="232079775#2_0" departPos="5.10" departSpeed="0.00" departDelay="0.60" arrival="173.00" arrivalLane="119238385#0_0" arrivalPos="144.87" arrivalSpeed="12.29" duration="32.00" routeLength="347.78" waitingTime="0.00" waitingCount="0" stopTime="0.00" timeLoss="4.90" rerouteNo="0" devices="tripinfo_39" vType="DEFAULT_VEHTYPE" speedFactor="0.95" vaporized=""/>
    <tripinfo id="21" depart="76.00" departLane="-778823268#1_0" departPos="5.10" departSpeed="0.00" departDelay="0.40" arrival="175.00" arrivalLane="119238385#0_0" arrivalPos="144.87" arrivalSpeed="13.42" duration="99.00" routeLength="522.97" waitingTime="49.00" waitingCount="1" stopTime="0.00" timeLoss="62.00" rerouteNo="0" devices="tripinfo_21" vType="DEFAULT_VEHTYPE" speedFactor="1.05" vaporized=""/>
    <tripinfo id="11" depart="40.00" departLane="232079775#2_0" departPos="5.10" departSpeed="0.00" departDelay="0.40" arrival="176.00" arrivalLane="119238380#0_0" arrivalPos="135.86" arrivalSpeed="14.82" duration="136.00" routeLength="466.15" waitingTime="76.00" waitingCount="3" stopTime="0.00" timeLoss="104.41" rerouteNo="0" devices="tripinfo_11" vType="DEFAULT_VEHTYPE" speedFactor="1.08" vaporized=""/>
    <tripinfo id="26" depart="94.00" departLane="232079775#2_0" departPos="5.10" departSpeed="0.00" departDelay="0.40" arrival="178.00" arrivalLane="E1_1" arrivalPos="103.00" arrivalSpeed="13.39" duration="84.00" routeLength="382.90" waitingTime="39.00" waitingCount="2" stopTime="0.00" timeLoss="55.52" rerouteNo="0" devices="tripinfo_26" vType="DEFAULT_VEHTYPE" speedFactor="1.00" vaporized=""/>
    <tripinfo id="22" depart="80.00" departLane="-778823268#1_0" departPos="5.10" departSpeed="0.00" departDelay="0.80" arrival="179.00" arrivalLane="119238385#0_0" arrivalPos="144.87" arrivalSpeed="13.08" duration="99.00" routeLength="522.97" waitingTime="47.00" waitingCount="1" stopTime="0.00" timeLoss="57.96" rerouteNo="0" devices="tripinfo_22" vType="DEFAULT_VEHTYPE" speedFactor="0.95" vaporized=""/>
    <tripinfo id="33" depart="119.00" departLane="-778823268#1_0" departPos="5.10" departSpeed="0.00" departDelay="0.20" arrival="179.00" arrivalLane="119238380#0_0" arrivalPos="135.86" arrivalSpeed="14.18" duration="60.00" routeLength="461.48" waitingTime="15.00" waitingCount="1" stopTime="0.00" timeLoss="28.49" rerouteNo="0" devices="tripinfo_33" vType="DEFAULT_VEHTYPE" speedFactor="1.07" vaporized=""/>
    <tripinfo id="23" depart="83.00" departLane="-778823268#1_0" departPos="5.10" departSpeed="0.00" departDelay="0.20" arrival="180.00" arrivalLane="119238385#0_0" arrivalPos="144.87" arrivalSpeed="14.68" duration="97.00" routeLength="522.97" waitingTime="45.00" waitingCount="1" stopTime="0.00" timeLoss="62.22" rerouteNo="0" devices="tripinfo_23" vType="DEFAULT_VEHTYPE" speedFactor="1.11" vaporized=""/>
    <tripinfo id="9" depart="33.00" departLane="668307639#0_0" departPos="5.10" departSpeed="0.00" departDelay="0.60" arrival="183.00" arrivalLane="119238380#0_0" arrivalPos="135.86" arrivalSpeed="11.52" duration="150.00" routeLength="497.82" waitingTime="95.00" waitingCount="2" stopTime="0.00" timeLoss="113.23" rerouteNo="0" devices="tripinfo_9" vType="DEFAULT_VEHTYPE" speedFactor="0.92" vaporized=""/>
    <tripinfo id="16" depart="58.00" departLane="448266581#0_0" departPos="5.10" departSpeed="0.00" departDelay="0.40" arrival="187.00" arrivalLane="E1_1" arrivalPos="103.00" arrivalSpeed="10.97" duration="129.00" routeLength="448.81" waitingTime="71.00" waitingCount="3" stopTime="0.00" timeLoss="92.53" rerouteNo="0" devices="tripinfo_16" vType="DEFAULT_VEHTYPE" speedFactor="0.88" vaporized=""/>
    <tripinfo id="42" depart="152.00" departLane="232079775#2_0" departPos="5.10" departSpeed="0.00" departDelay="0.80" arrival="187.00" arrivalLane="119238385#0_0" arrivalPos="144.87" arrivalSpeed="13.29" duration="35.00" routeLength="347.78" waitingTime="0.00" waitingCount="0" stopTime="0.00" timeLoss="9.51" rerouteNo="0" devices="tripinfo_42" vType="DEFAULT_VEHTYPE" speedFactor="1.00" vaporized=""/>
    <tripinfo id="31" depart="112.00" departLane="448266581#0_0" departPos="5.10" departSpeed="0.00" departDelay="0.40" arrival="190.00" arrivalLane="778823268#0_1" arrivalPos="238.22" arrivalSpeed="12.39" duration="78.00" routeLength="550.05" waitingTime="22.00" waitingCount="1" stopTime="0.00" timeLoss="36.22" rerouteNo="0" devices="tripinfo_31" vType="DEFAULT_VEHTYPE" speedFactor="0.95" vaporized=""/>
    <tripinfo id="28" depart="101.00" departLane="-778823268#1_0" departPos="5.10" departSpeed="0.00" departDelay="0.20" arrival="194.00" arrivalLane="778823268#0_0" arrivalPos="238.22" arrivalSpeed="14.19" duration="93.00" routeLength="655.26" waitingTime="32.00" waitingCount="1" stopTime="0.00" timeLoss="47.50" rerouteNo="0" devices="tripinfo_28" vType="DEFAULT_VEHTYPE" speedFactor="1.07" vaporized=""/>
    <tripinfo id="18" depart="65.00" departLane="668307639#0_0" departPos="5.10" departSpeed="0.00" departDelay="0.20" arrival="198.00" arrivalLane="668307633#3_0" arrivalPos="112.63" arrivalSpeed="15.80" duration="133.00" routeLength="623.09" waitingTime="69.00" waitingCount="3" stopTime="0.00" timeLoss="92.02" rerouteNo="0" devices="tripinfo_18" vType="DEFAULT_VEHTYPE" speedFactor="0.99" vaporized=""/>
    <tripinfo id="19" depart="69.00" departLane="668307639#0_0" departPos="5.10" departSpeed="0.00" departDelay="0.60" arrival="199.00" arrivalLane="668307633#3_1" arrivalPos="112.63" arrivalSpeed="15.29" duration="130.00" routeLength="623.09" waitingTime="55.00" waitingCount="3" stopTime="0.00" timeLoss="87.52" rerouteNo="0" devices="tripinfo_19" vType="DEFAULT_VEHTYPE" speedFactor="0.96" vaporized=""/>
    <tripinfo id="14" depart="51.00" departLane="668307639#0_0" departPos="5.10" departSpeed="0.00" departDelay="0.60" arrival="200.00" arrivalLane="668307633#3_2" arrivalPos="112.63" arrivalSpeed="13.00" duration="149.00" routeLength="625.14" waitingTime="75.00" waitingCount="4" stopTime="0.00" timeLoss="99.63" rerouteNo="0" devices="tripinfo_14" vType="DEFAULT_VEHTYPE" speedFactor="0.83" vaporized=""/>
    <tripinfo id="30" depart="108.00" departLane="668307639#0_0" departPos="5.10" departSpeed="0.00" departDelay="0.00" arrival="200.00" arrivalLane="668307633#3_1" arrivalPos="112.63" arrivalSpeed="16.68" duration="92.00" routeLength="623.09" waitingTime="31.00" waitingCount="2" stopTime="0.00" timeLoss="52.37" rerouteNo="0" devices="tripinfo_30" vType="DEFAULT_VEHTYPE" speedFactor="1.01" vaporized=""/>
    <tripinfo id="44" depart="159.00" departLane="-778823268#1_0" departPos="5.10" departSpeed="0.00" departDelay="0.60" arrival="200.00" arrivalLane="119238380#0_0" arrivalPos="135.86" arrivalSpeed="12.10" duration="41.00" routeLength="461.48" waitingTime="0.00" waitingCount="0" stopTime="0.00" timeLoss="5.36" rerouteNo="0" devices="tripinfo_44" vType="DEFAULT_VEHTYPE" speedFactor="0.95" vaporized=""/>
    <tripinfo id="47" depart="170.00" departLane="-778823268#1_0" departPos="5.10" departSpeed="0.00" departDelay="0.80" arrival="207.00" arrivalLane="44499684#3_0" arrivalPos="84.04" arrivalSpeed="18.10" duration="37.00" routeLength="453.00" waitingTime="0.00" waitingCount="0" stopTime="0.00" timeLoss="8.72" rerouteNo="0" devices="tripinfo_47" vType="DEFAULT_VEHTYPE" speedFactor="1.10" vaporized=""/>
    <tripinfo id="45" depart="162.00" departLane="-778823268#1_0" departPos="5.10" departSpeed="0.00" departDelay="0.00" arrival="216.00" arrivalLane="668307633#3_1" arrivalPos="112.63" arrivalSpeed="13.36" duration="54.00" routeLength="595.69" waitingTime="0.00" waitingCount="0" stopTime="0.00" timeLoss="6.32" rerouteNo="0" devices="tripinfo_45" vType="DEFAULT_VEHTYPE" speedFactor="0.86" vaporized=""/>
    <tripinfo id="24" depart="87.00" departLane="448266581#0_0" departPos="5.10" departSpeed="0.00" departDelay="0.60" arrival="218.00" arrivalLane="44499684#3_0" arrivalPos="84.04" arrivalSpeed="17.08" duration="131.00" routeLength="510.14" waitingTime="72.00" waitingCount="3" stopTime="0.00" timeLoss="97.90" rerouteNo="0" devices="tripinfo_24" vType="DEFAULT_VEHTYPE" speedFactor="1.06" vaporized=""/>
    <tripinfo id="38" depart="137.00" departLane="668307639#0_0" departPos="5.10" departSpeed="0.00" departDelay="0.20" arrival="218.00" arrivalLane="44499684#3_1" arrivalPos="84.04" arrivalSpeed="16.68" duration="81.00" routeLength="485.82" waitingTime="37.00" waitingCount="2" stopTime="0.00" timeLoss="52.24" rerouteNo="0" devices="tripinfo_38" vType="DEFAULT_VEHTYPE" speedFactor="1.03" vaporized=""/>
    <tripinfo id="46" depart="166.00" departLane="668307639#0_0" departPos="5.10" departSpeed="0.00" departDelay="0.40" arrival="219.00" arrivalLane="44499684#3_2" arrivalPos="84.04" arrivalSpeed="15.25" duration="53.00" routeLength="486.19" waitingTime="9.00" waitingCount="1" stopTime="0.00" timeLoss="21.92" rerouteNo="0" devices="tripinfo_46" vType="DEFAULT_VEHTYPE" speedFactor="0.97" vaporized=""/>
    <tripinfo id="49" depart="177.00" departLane="668307639#0_0" departPos="5.10" departSpeed="0.00" departDelay="0.60" arrival="221.00" arrivalLane="E1_1" arrivalPos="103.00" arrivalSpeed="11.42" duration="44.00" routeLength="411.03" waitingTime="3.00" waitingCount="1" stopTime="0.00" timeLoss="10.91" rerouteNo="0" devices="tripinfo_49" vType="DEFAULT_VEHTYPE" speedFactor="0.85" vaporized=""/>
    <tripinfo id="36" depart="130.00" departLane="668307639#0_0" departPos="5.10" departSpeed="0.00" departDelay="0.40" arrival="223.00" arrivalLane="119238385#0_0" arrivalPos="144.87" arrivalSpeed="10.49" duration="93.00" routeLength="559.31" waitingTime="27.00" waitingCount="3" stopTime="0.00" timeLoss="42.98" rerouteNo="0" devices="tripinfo_36" vType="DEFAULT_VEHTYPE" speedFactor="0.78" vaporized=""/>
    <tripinfo id="40" depart="144.00" departLane="448266581#0_0" departPos="5.10" departSpeed="0.00" departDelay="0.00" arrival="232.00" arrivalLane="119238385#0_0" arrivalPos="144.87" arrivalSpeed="10.28" duration="88.00" routeLength="416.20" waitingTime="41.00" waitingCount="1" stopTime="0.00" timeLoss="52.71" rerouteNo="0" devices="tripinfo_40" vType="DEFAULT_VEHTYPE" speedFactor="0.83" vaporized=""/>
    <tripinfo id="53" depart="191.00" departLane="-778823268#1_0" departPos="5.10" departSpeed="0.00" departDelay="0.20" arrival="235.00" arrivalLane="44499684#3_0" arrivalPos="84.04" arrivalSpeed="13.42" duration="44.00" routeLength="453.00" waitingTime="0.00" waitingCount="0" stopTime="0.00" timeLoss="7.36" rerouteNo="0" devices="tripinfo_53" vType="DEFAULT_VEHTYPE" speedFactor="0.86" vaporized=""/>
    <tripinfo id="56" depart="202.00" departLane="448266581#0_0" departPos="5.10" departSpeed="0.00" departDelay="0.40" arrival="239.00" arrivalLane="119238385#0_0" arrivalPos="144.87" arrivalSpeed="12.15" duration="37.00" routeLength="416.20" waitingTime="0.00" waitingCount="0" stopTime="0.00" timeLoss="5.43" rerouteNo="0" devices="tripinfo_56" vType="DEFAULT_VEHTYPE" speedFactor="0.92" vaporized=""/>
    <tripinfo id="52" depart="188.00" departLane="232079775#2_0" departPos="5.10" departSpeed="0.00" departDelay="0.80" arrival="241.00" arrivalLane="668307633#3_0" arrivalPos="112.63" arrivalSpeed="17.02" duration="53.00" routeLength="455.41" waitingTime="12.00" waitingCount="1" stopTime="0.00" timeLoss="23.74" rerouteNo="0" devices="tripinfo_52" vType="DEFAULT_VEHTYPE" speedFactor="1.03" vaporized=""/>
    <tripinfo id="41" depart="148.00" departLane="448266581#0_0" departPos="5.10" departSpeed="0.00" departDelay="0.40" arrival="242.00" arrivalLane="E1_1" arrivalPos="103.00" arrivalSpeed="12.08" duration="94.00" routeLength="450.17" waitingTime="39.00" waitingCount="3" stopTime="0.00" timeLoss="58.95" rerouteNo="0" devices="tripinfo_41" vType="DEFAULT_VEHTYPE" speedFactor="0.92" vaporized=""/>
    <tripinfo id="57" depart="206.00" departLane="668307639#0_0" departPos="5.10" departSpeed="0.00" departDelay="0.80" arrival="247.00" arrivalLane="E1_1" arrivalPos="103.00" arrivalSpeed="12.47" duration="41.00" routeLength="411.03" waitingTime="0.00" waitingCount="0" stopTime="0.00" timeLoss="10.95" rerouteNo="0" devices="tripinfo_57" vType="DEFAULT_VEHTYPE" speedFactor="0.95" vaporized=""/>
    <tripinfo id="55" depart="198.00" departLane="668307639#0_0" departPos="5.10" departSpeed="0.00" departDelay="0.00" arrival="248.00" arrivalLane="119238385#0_0" arrivalPos="144.87" arrivalSpeed="15.82" duration="50.00" routeLength="556.93" waitingTime="1.00" waitingCount="1" stopTime="0.00" timeLoss="16.15" rerouteNo="0" devices="tripinfo_55" vType="DEFAULT_VEHTYPE" speedFactor="1.16" vaporized=""/>
    <tripinfo id="58" depart="209.00" departLane="232079775#2_0" departPos="5.10" departSpeed="0.00" departDelay="0.20" arrival="253.00" arrivalLane="668307633#3_0" arrivalPos="112.63" arrivalSpeed="13.38" duration="44.00" routeLength="455.41" waitingTime="0.00" waitingCount="0" stopTime="0.00" timeLoss="8.13" rerouteNo="0" devices="tripinfo_58" vType="DEFAULT_VEHTYPE" speedFactor="0.87" vaporized=""/>
    <tripinfo id="63" depart="227.00" departLane="-778823268#1_0" departPos="5.10" departSpeed="0.00" departDelay="0.20" arrival="260.00" arrivalLane="E1_0" arrivalPos="103.00" arrivalSpeed="13.35" duration="33.00" routeLength="369.88" waitingTime="0.00" waitingCount="0" stopTime="0.00" timeLoss="5.95" rerouteNo="0" devices="tripinfo_63" vType="DEFAULT_VEHTYPE" speedFactor="1.01" vaporized=""/>
    <tripinfo id="37" depart="134.00" departLane="448266581#0_0" departPos="5.10" departSpeed="0.00" departDelay="0.80" arrival="268.00" arrivalLane="44499684#3_0" arrivalPos="84.04" arrivalSpeed="17.79" duration="134.00" routeLength="512.41" waitingTime="79.00" waitingCount="3" stopTime="0.00" timeLoss="102.84" rerouteNo="0" devices="tripinfo_37" vType="DEFAULT_VEHTYPE" speedFactor="1.14" vaporized=""/>
    <tripinfo id="62" depart="224.00" departLane="-778823268#1_0" departPos="5.10" departSpeed="0.00" departDelay="0.80" arrival="268.00" arrivalLane="119238385#0_0" arrivalPos="144.87" arrivalSpeed="13.60" duration="44.00" routeLength="522.97" waitingTime="0.00" waitingCount="0" stopTime="0.00" timeLoss="5.10" rerouteNo="0" devices="tripinfo_62" vType="DEFAULT_VEHTYPE" speedFactor="0.99" vaporized=""/>
    <tripinfo id="59" depart="213.00" departLane="448266581#0_0" departPos="5.10" departSpeed="0.00" departDelay="0.60" arrival="271.00" arrivalLane="119238380#0_0" arrivalPos="135.86" arrivalSpeed="13.59" duration="58.00" routeLength="354.71" waitingTime="21.00" waitingCount="1" stopTime="0.00" timeLoss="33.68" rerouteNo="0" devices="tripinfo_59" vType="DEFAULT_VEHTYPE" speedFactor="1.02" vaporized=""/>
    <tripinfo id="43" depart="155.00" departLane="668307639#0_0" departPos="5.10" departSpeed="0.00" departDelay="0.20" arrival="272.00" arrivalLane="668307633#3_0" arrivalPos="112.63" arrivalSpeed="16.72" duration="117.00" routeLength="623.09" waitingTime="48.00" waitingCount="6" stopTime="0.00" timeLoss="78.87" rerouteNo="0" devices="tripinfo_43" vType="DEFAULT_VEHTYPE" speedFactor="1.06" vaporized=""/>
    <tripinfo id="48" depart="173.00" departLane="668307639#0_0" departPos="5.10" departSpeed="0.00" departDelay="0.20" arrival="272.00" arrivalLane="668307633#3_2" arrivalPos="112.63" arrivalSpeed="15.62" duration="99.00" routeLength="625.14" waitingTime="31.00" waitingCount="4" stopTime="0.00" timeLoss="58.27" rerouteNo="0" devices="tripinfo_48" vType="DEFAULT_VEHTYPE" speedFactor="1.00" vaporized=""/>
    <tripinfo id="51" depart="184.00" departLane="448266581#0_0" departPos="5.10" departSpeed="0.00" departDelay="0.40" arrival="272.00" arrivalLane="668307633#3_1" arrivalPos="112.63" arrivalSpeed="17.18" duration="88.00" routeLength="490.12" waitingTime="41.00" waitingCount="2" stopTime="0.00" timeLoss="59.16" rerouteNo="0" devices="tripinfo_51" vType="DEFAULT_VEHTYPE" speedFactor="1.04" vaporized=""/>
    <tripinfo id="60" depart="216.00" departLane="668307639#0_0" departPos="5.10" departSpeed="0.00" departDelay="0.00" arrival="275.00" arrivalLane="668307633#3_1" arrivalPos="112.63" arrivalSpeed="15.76" duration="59.00" routeLength="623.09" waitingTime="0.00" waitingCount="0" stopTime="0.00" timeLoss="16.01" rerouteNo="0" devices="tripinfo_60" vType="DEFAULT_VEHTYPE" speedFactor="0.95" vaporized=""/>
    <tripinfo id="64" depart="231.00" departLane="668307639#0_0" departPos="5.10" departSpeed="0.00" departDelay="0.60" arrival="277.00" arrivalLane="778823268#0_0" arrivalPos="238.22" arrivalSpeed="12.83" duration="46.00" routeLength="503.37" waitingTime="0.00" waitingCount="0" stopTime="0.00" timeLoss="9.69" rerouteNo="0" devices="tripinfo_64" vType="DEFAULT_VEHTYPE" speedFactor="0.96" vaporized=""/>
    <tripinfo id="50" depart="180.00" departLane="-778823268#1_0" departPos="5.10" departSpeed="0.00" departDelay="0.00" arrival="278.00" arrivalLane="778823268#0_0" arrivalPos="238.22" arrivalSpeed="11.19" duration="98.00" routeLength="659.30" waitingTime="21.00" waitingCount="2" stopTime="0.00" timeLoss="38.88" rerouteNo="0" devices="tripinfo_50" vType="DEFAULT_VEHTYPE" speedFactor="0.83" vaporized=""/>
    <tripinfo id="66" depart="238.00" departLane="668307639#0_0" departPos="5.10" departSpeed="0.00" departDelay="0.40" arrival="283.00" arrivalLane="E1_1" arrivalPos="103.00" arrivalSpeed="10.47" duration="45.00" routeLength="411.03" waitingTime="1.00" waitingCount="1" stopTime="0.00" timeLoss="11.22" rerouteNo="0" devices="tripinfo_66" vType="DEFAULT_VEHTYPE" speedFactor="0.83" vaporized=""/>
    <tripinfo id="67" depart="242.00" departLane="-778823268#1_0" departPos="5.10" departSpeed="0.00" departDelay="0.80" arrival="283.00" arrivalLane="44499684#3_0" arrivalPos="84.04" arrivalSpeed="15.49" duration="41.00" routeLength="453.00" waitingTime="0.00" waitingCount="0" stopTime="0.00" timeLoss="7.13" rerouteNo="0" devices="tripinfo_67" vType="DEFAULT_VEHTYPE" speedFactor="0.94" vaporized=""/>
    <tripinfo id="70" depart="252.00" departLane="232079775#2_0" departPos="5.10" departSpeed="0.00" departDelay="0.00" arrival="290.00" arrivalLane="668307633#3_0" arrivalPos="112.63" arrivalSpeed="17.55" duration="38.00" routeLength="455.41" waitingTime="0.00" waitingCount="0" stopTime="0.00" timeLoss="9.76" rerouteNo="0" devices="tripinfo_70" vType="DEFAULT_VEHTYPE" speedFactor="1.08" vaporized=""/>
    <tripinfo id="72" depart="260.00" departLane="232079775#2_0" departPos="5.10" departSpeed="0.00" departDelay="0.80" arrival="292.00" arrivalLane="119238385#0_0" arrivalPos="144.87" arrivalSpeed="12.62" duration="32.00" routeLength="347.78" waitingTime="0.00" waitingCount="0" stopTime="0.00" timeLoss="5.13" rerouteNo="0" devices="tripinfo_72" vType="DEFAULT_VEHTYPE" speedFactor="0.97" vaporized=""/>
    <tripinfo id="76" depart="274.00" departLane="232079775#2_0" departPos="5.10" departSpeed="0.00" departDelay="0.40" arrival="314.00" arrivalLane="668307633#3_0" arrivalPos="112.63" arrivalSpeed="15.85" duration="40.00" routeLength="455.41" waitingTime="0.00" waitingCount="0" stopTime="0.00" timeLoss="9.14" rerouteNo="0" devices="tripinfo_76" vType="DEFAULT_VEHTYPE" speedFactor="0.99" vaporized=""/>
    <tripinfo id="69" depart="249.00" departLane="668307639#0_0" departPos="5.10" departSpeed="0.00" departDelay="0.60" arrival="319.00" arrivalLane="119238380#0_0" arrivalPos="135.86" arrivalSpeed="13.72" duration="70.00" routeLength="495.44" waitingTime="25.00" waitingCount="1" stopTime="0.00" timeLoss="37.88" rerouteNo="0" devices="tripinfo_69" vType="DEFAULT_VEHTYPE" speedFactor="1.05" vaporized=""/>