<?xml version="1.0" encoding="UTF-8"?>

<!-- generated on 2024-08-31 19:34:45 by Eclipse SUMO sumo Version 1.20.0
<configuration xmlns:xsi="http://www.w3.org/2001/XMLSchema-instance" xsi:noNamespaceSchemaLocation="http://sumo.dlr.de/xsd/sumoConfiguration.xsd">

    <input>
        <net-file value="c:\self\School\Master\Disertation\code\RESCO\resco_benchmark\environments/romana/osm.net.xml.gz"/>
        <route-files value="c:\self\School\Master\Disertation\code\RESCO\resco_benchmark\environments/romana/osm.passenger.trips.xml"/>
        <additional-files value="c:\self\School\Master\Disertation\code\RESCO\resco_benchmark\environments/romana/osm.poly.xml.gz"/>
    </input>

    <output>
        <tripinfo-output value="C:\self\School\Master\Disertation\code\RESCO\results\IPPO-tr0-romana-0-drq_norm-wait_norm\tripinfo_9.xml"/>
        <tripinfo-output.write-unfinished value="true"/>
    </output>

    <processing>
        <ignore-route-errors value="true"/>
        <time-to-teleport value="-1"/>
    </processing>

    <routing>
        <device.rerouting.adaptation-steps value="18"/>
        <device.rerouting.adaptation-interval value="10"/>
    </routing>

    <report>
        <verbose value="true"/>
        <no-warnings value="True"/>
        <duration-log.statistics value="true"/>
        <no-step-log value="True"/>
    </report>

    <traci_server>
        <remote-port value="59592"/>
    </traci_server>

    <random_number>
        <random value="true"/>
    </random_number>

    <gui_only>
        <gui-settings-file value="c:\self\School\Master\Disertation\code\RESCO\resco_benchmark\environments/romana/osm.view.xml"/>
    </gui_only>

</configuration>
-->

<tripinfos xmlns:xsi="http://www.w3.org/2001/XMLSchema-instance" xsi:noNamespaceSchemaLocation="http://sumo.dlr.de/xsd/tripinfo_file.xsd">
    <tripinfo id="0" depart="0.00" departLane="448266581#0_0" departPos="5.10" departSpeed="0.00" departDelay="0.00" arrival="29.00" arrivalLane="119238380#0_0" arrivalPos="135.86" arrivalSpeed="13.87" duration="29.00" routeLength="354.71" waitingTime="0.00" waitingCount="0" stopTime="0.00" timeLoss="5.01" rerouteNo="0" devices="tripinfo_0" vType="DEFAULT_VEHTYPE" speedFactor="1.04" vaporized=""/>
    <tripinfo id="1" depart="4.00" departLane="232079775#2_0" departPos="5.10" departSpeed="0.00" departDelay="0.40" arrival="44.00" arrivalLane="119238385#0_0" arrivalPos="144.87" arrivalSpeed="9.38" duration="40.00" routeLength="347.78" waitingTime="0.00" waitingCount="0" stopTime="0.00" timeLoss="4.28" rerouteNo="0" devices="tripinfo_1" vType="DEFAULT_VEHTYPE" speedFactor="0.71" vaporized=""/>
    <tripinfo id="3" depart="11.00" departLane="668307639#0_0" departPos="5.10" departSpeed="0.00" departDelay="0.20" arrival="68.00" arrivalLane="119238380#0_0" arrivalPos="135.86" arrivalSpeed="15.66" duration="57.00" routeLength="495.44" waitingTime="14.00" waitingCount="1" stopTime="0.00" timeLoss="26.56" rerouteNo="0" devices="tripinfo_3" vType="DEFAULT_VEHTYPE" speedFactor="1.13" vaporized=""/>
    <tripinfo id="2" depart="8.00" departLane="448266581#0_0" departPos="5.10" departSpeed="0.00" departDelay="0.80" arrival="73.00" arrivalLane="778823268#0_0" arrivalPos="238.22" arrivalSpeed="13.48" duration="65.00" routeLength="546.01" waitingTime="15.00" waitingCount="1" stopTime="0.00" timeLoss="27.15" rerouteNo="0" devices="tripinfo_2" vType="DEFAULT_VEHTYPE" speedFactor="1.05" vaporized=""/>
    <tripinfo id="4" depart="15.00" departLane="232079775#2_0" departPos="5.10" departSpeed="0.00" departDelay="0.60" arrival="75.00" arrivalLane="119238380#0_0" arrivalPos="135.86" arrivalSpeed="11.80" duration="60.00" routeLength="467.31" waitingTime="12.00" waitingCount="1" stopTime="0.00" timeLoss="22.35" rerouteNo="0" devices="tripinfo_4" vType="DEFAULT_VEHTYPE" speedFactor="0.92" vaporized=""/>
    <tripinfo id="6" depart="22.00" departLane="-778823268#1_0" departPos="5.10" departSpeed="0.00" departDelay="0.40" arrival="77.00" arrivalLane="119238385#0_0" arrivalPos="144.87" arrivalSpeed="13.48" duration="55.00" routeLength="522.97" waitingTime="6.00" waitingCount="1" stopTime="0.00" timeLoss="16.41" rerouteNo="0" devices="tripinfo_6" vType="DEFAULT_VEHTYPE" speedFactor="1.00" vaporized=""/>
    <tripinfo id="9" depart="33.00" departLane="668307639#0_0" departPos="5.10" departSpeed="0.00" departDelay="0.60" arrival="77.00" arrivalLane="119238380#0_0" arrivalPos="135.86" arrivalSpeed="12.91" duration="44.00" routeLength="495.44" waitingTime="0.00" waitingCount="0" stopTime="0.00" timeLoss="8.76" rerouteNo="0" devices="tripinfo_9" vType="DEFAULT_VEHTYPE" speedFactor="0.97" vaporized=""/>
    <tripinfo id="10" depart="36.00" departLane="668307639#0_0" departPos="5.10" departSpeed="0.00" departDelay="0.00" arrival="77.00" arrivalLane="778823268#0_0" arrivalPos="238.22" arrivalSpeed="14.54" duration="41.00" routeLength="503.37" waitingTime="0.00" waitingCount="0" stopTime="0.00" timeLoss="8.48" rerouteNo="0" devices="tripinfo_10" vType="DEFAULT_VEHTYPE" speedFactor="1.05" vaporized=""/>
    <tripinfo id="13" depart="47.00" departLane="-778823268#1_0" departPos="5.10" departSpeed="0.00" departDelay="0.20" arrival="86.00" arrivalLane="119238380#0_0" arrivalPos="135.86" arrivalSpeed="13.04" duration="39.00" routeLength="461.48" waitingTime="0.00" waitingCount="0" stopTime="0.00" timeLoss="4.70" rerouteNo="0" devices="tripinfo_13" vType="DEFAULT_VEHTYPE" speedFactor="0.99" vaporized=""/>
    <tripinfo id="11" depart="40.00" departLane="232079775#2_0" departPos="5.10" departSpeed="0.00" departDelay="0.40" arrival="98.00" arrivalLane="119238380#0_0" arrivalPos="135.86" arrivalSpeed="12.10" duration="58.00" routeLength="467.31" waitingTime="11.00" waitingCount="1" stopTime="0.00" timeLoss="21.95" rerouteNo="0" devices="tripinfo_11" vType="DEFAULT_VEHTYPE" speedFactor="0.96" vaporized=""/>
    <tripinfo id="17" depart="62.00" departLane="232079775#2_0" departPos="5.10" departSpeed="0.00" departDelay="0.80" arrival="98.00" arrivalLane="668307633#3_0" arrivalPos="112.63" arrivalSpeed="17.45" duration="36.00" routeLength="455.41" waitingTime="0.00" waitingCount="0" stopTime="0.00" timeLoss="7.05" rerouteNo="0" devices="tripinfo_17" vType="DEFAULT_VEHTYPE" speedFactor="1.08" vaporized=""/>
    <tripinfo id="12" depart="44.00" departLane="668307639#0_0" departPos="5.10" departSpeed="0.00" departDelay="0.80" arrival="116.00" arrivalLane="44499684#3_0" arrivalPos="84.04" arrivalSpeed="19.45" duration="72.00" routeLength="485.82" waitingTime="36.00" waitingCount="1" stopTime="0.00" timeLoss="46.69" rerouteNo="0" devices="tripinfo_12" vType="DEFAULT_VEHTYPE" speedFactor="1.18" vaporized=""/>
    <tripinfo id="21" depart="76.00" departLane="-778823268#1_0" departPos="5.10" departSpeed="0.00" departDelay="0.40" arrival="118.00" arrivalLane="119238385#0_0" arrivalPos="144.87" arrivalSpeed="14.63" duration="42.00" routeLength="522.97" waitingTime="0.00" waitingCount="0" stopTime="0.00" timeLoss="5.73" rerouteNo="0" devices="tripinfo_21" vType="DEFAULT_VEHTYPE" speedFactor="1.06" vaporized=""/>
    <tripinfo id="20" depart="72.00" departLane="448266581#0_0" departPos="5.10" departSpeed="0.00" departDelay="0.00" arrival="121.00" arrivalLane="119238380#0_0" arrivalPos="135.86" arrivalSpeed="13.02" duration="49.00" routeLength="356.22" waitingTime="11.00" waitingCount="1" stopTime="0.00" timeLoss="23.23" rerouteNo="0" devices="tripinfo_20" vType="DEFAULT_VEHTYPE" speedFactor="0.96" vaporized=""/>
    <tripinfo id="15" depart="54.00" departLane="668307639#0_0" departPos="5.10" departSpeed="0.00" departDelay="0.00" arrival="127.00" arrivalLane="778823268#0_0" arrivalPos="238.22" arrivalSpeed="12.18" duration="73.00" routeLength="503.37" waitingTime="27.00" waitingCount="1" stopTime="0.00" timeLoss="36.62" rerouteNo="0" devices="tripinfo_15" vType="DEFAULT_VEHTYPE" speedFactor="0.96" vaporized=""/>
    <tripinfo id="25" depart="90.00" departLane="232079775#2_0" departPos="5.10" departSpeed="0.00" departDelay="0.00" arrival="132.00" arrivalLane="119238385#0_0" arrivalPos="144.87" arrivalSpeed="12.19" duration="42.00" routeLength="347.78" waitingTime="6.00" waitingCount="1" stopTime="0.00" timeLoss="14.74" rerouteNo="0" devices="tripinfo_25" vType="DEFAULT_VEHTYPE" speedFactor="0.95" vaporized=""/>
    <tripinfo id="16" depart="58.00" departLane="448266581#0_0" departPos="5.10" departSpeed="0.00" departDelay="0.40" arrival="142.00" arrivalLane="E1_1" arrivalPos="103.00" arrivalSpeed="13.33" duration="84.00" routeLength="448.81" waitingTime="34.00" waitingCount="2" stopTime="0.00" timeLoss="52.25" rerouteNo="0" devices="tripinfo_16" vType="DEFAULT_VEHTYPE" speedFactor="1.00" vaporized=""/>
    <tripinfo id="26" depart="94.00" departLane="232079775#2_0" departPos="5.10" departSpeed="0.00" departDelay="0.40" arrival="147.00" arrivalLane="E1_1" arrivalPos="103.00" arrivalSpeed="11.94" duration="53.00" routeLength="382.90" waitingTime="5.00" waitingCount="2" stopTime="0.00" timeLoss="21.09" rerouteNo="0" devices="tripinfo_26" vType="DEFAULT_VEHTYPE" speedFactor="0.90" vaporized=""/>
    <tripinfo id="22" depart="80.00" departLane="-778823268#1_0" departPos="5.10" departSpeed="0.00" departDelay="0.80" arrival="149.00" arrivalLane="119238385#0_0" arrivalPos="144.87" arrivalSpeed="14.66" duration="69.00" routeLength="522.97" waitingTime="23.00" waitingCount="1" stopTime="0.00" timeLoss="33.60" rerouteNo="0" devices="tripinfo_22" vType="DEFAULT_VEHTYPE" speedFactor="1.09" vaporized=""/>
    <tripinfo id="29" depart="105.00" departLane="-778823268#1_0" departPos="5.10" departSpeed="0.00" departDelay="0.60" arrival="149.00" arrivalLane="44499684#3_0" arrivalPos="84.04" arrivalSpeed="13.93" duration="44.00" routeLength="453.00" waitingTime="0.00" waitingCount="0" stopTime="0.00" timeLoss="7.64" rerouteNo="0" devices="tripinfo_29" vType="DEFAULT_VEHTYPE" speedFactor="0.87" vaporized=""/>
    <tripinfo id="23" depart="83.00" departLane="-778823268#1_0" departPos="5.10" departSpeed="0.00" departDelay="0.20" arrival="151.00" arrivalLane="119238385#0_0" arrivalPos="144.87" arrivalSpeed="15.01" duration="68.00" routeLength="522.97" waitingTime="20.00" waitingCount="1" stopTime="0.00" timeLoss="32.23" rerouteNo="0" devices="tripinfo_23" vType="DEFAULT_VEHTYPE" speedFactor="1.08" vaporized=""/>
    <tripinfo id="31" depart="112.00" departLane="448266581#0_0" departPos="5.10" departSpeed="0.00" departDelay="0.40" arrival="155.00" arrivalLane="778823268#0_0" arrivalPos="238.22" arrivalSpeed="15.41" duration="43.00" routeLength="546.01" waitingTime="0.00" waitingCount="0" stopTime="0.00" timeLoss="8.56" rerouteNo="0" devices="tripinfo_31" vType="DEFAULT_VEHTYPE" speedFactor="1.15" vaporized=""/>
    <tripinfo id="35" depart="126.00" departLane="-778823268#1_0" departPos="5.10" departSpeed="0.00" departDelay="0.00" arrival="157.00" arrivalLane="E1_0" arrivalPos="103.00" arrivalSpeed="13.67" duration="31.00" routeLength="369.88" waitingTime="0.00" waitingCount="0" stopTime="0.00" timeLoss="5.03" rerouteNo="0" devices="tripinfo_35" vType="DEFAULT_VEHTYPE" speedFactor="1.06" vaporized=""/>
    <tripinfo id="34" depart="123.00" departLane="232079775#2_0" departPos="5.10" departSpeed="0.00" departDelay="0.60" arrival="159.00" arrivalLane="119238385#0_0" arrivalPos="144.87" arrivalSpeed="13.70" duration="36.00" routeLength="347.78" waitingTime="0.00" waitingCount="0" stopTime="0.00" timeLoss="10.08" rerouteNo="0" devices="tripinfo_34" vType="DEFAULT_VEHTYPE" speedFactor="0.99" vaporized=""/>
    <tripinfo id="33" depart="119.00" departLane="-778823268#1_0" departPos="5.10" departSpeed="0.00" departDelay="0.20" arrival="164.00" arrivalLane="119238380#0_0" arrivalPos="135.86" arrivalSpeed="10.77" duration="45.00" routeLength="461.48" waitingTime="0.00" waitingCount="0" stopTime="0.00" timeLoss="5.34" rerouteNo="0" devices="tripinfo_33" vType="DEFAULT_VEHTYPE" speedFactor="0.85" vaporized=""/>
    <tripinfo id="24" depart="87.00" departLane="448266581#0_0" departPos="5.10" departSpeed="0.00" departDelay="0.60" arrival="167.00" arrivalLane="44499684#3_0" arrivalPos="84.04" arrivalSpeed="18.85" duration="80.00" routeLength="512.41" waitingTime="25.00" waitingCount="2" stopTime="0.00" timeLoss="50.01" rerouteNo="0" devices="tripinfo_24" vType="DEFAULT_VEHTYPE" speedFactor="1.16" vaporized=""/>
    <tripinfo id="28" depart="101.00" departLane="-778823268#1_0" departPos="5.10" departSpeed="0.00" departDelay="0.20" arrival="169.00" arrivalLane="778823268#0_0" arrivalPos="238.22" arrivalSpeed="11.96" duration="68.00" routeLength="655.26" waitingTime="2.00" waitingCount="1" stopTime="0.00" timeLoss="16.65" rerouteNo="0" devices="tripinfo_28" vType="DEFAULT_VEHTYPE" speedFactor="0.95" vaporized=""/>
    <tripinfo id="5" depart="18.00" departLane="-778823268#1_0" departPos="5.10" departSpeed="0.00" departDelay="0.00" arrival="171.00" arrivalLane="668307633#3_0" arrivalPos="112.63" arrivalSpeed="19.10" duration="153.00" routeLength="595.69" waitingTime="103.00" waitingCount="2" stopTime="0.00" timeLoss="117.21" rerouteNo="0" devices="tripinfo_5" vType="DEFAULT_VEHTYPE" speedFactor="1.15" vaporized=""/>
    <tripinfo id="7" depart="26.00" departLane="448266581#0_0" departPos="5.10" departSpeed="0.00" departDelay="0.80" arrival="172.00" arrivalLane="668307633#3_0" arrivalPos="112.63" arrivalSpeed="16.52" duration="146.00" routeLength="489.91" waitingTime="106.00" waitingCount="1" stopTime="0.00" timeLoss="116.67" rerouteNo="0" devices="tripinfo_7" vType="DEFAULT_VEHTYPE" speedFactor="1.00" vaporized=""/>
    <tripinfo id="18" depart="65.00" departLane="668307639#0_0" departPos="5.10" departSpeed="0.00" departDelay="0.20" arrival="172.00" arrivalLane="668307633#3_2" arrivalPos="112.63" arrivalSpeed="19.37" duration="107.00" routeLength="623.09" waitingTime="51.00" waitingCount="3" stopTime="0.00" timeLoss="74.11" rerouteNo="0" devices="tripinfo_18" vType="DEFAULT_VEHTYPE" speedFactor="1.21" vaporized=""/>
    <tripinfo id="38" depart="137.00" departLane="668307639#0_0" departPos="5.10" departSpeed="0.00" departDelay="0.20" arrival="172.00" arrivalLane="44499684#3_0" arrivalPos="84.04" arrivalSpeed="17.44" duration="35.00" routeLength="485.82" waitingTime="0.00" waitingCount="0" stopTime="0.00" timeLoss="6.17" rerouteNo="0" devices="tripinfo_38" vType="DEFAULT_VEHTYPE" speedFactor="1.07" vaporized=""/>
    <tripinfo id="8" depart="29.00" departLane="-778823268#1_0" departPos="5.10" departSpeed="0.00" departDelay="0.20" arrival="174.00" arrivalLane="668307633#3_1" arrivalPos="112.63" arrivalSpeed="14.17" duration="145.00" routeLength="595.69" waitingTime="88.00" waitingCount="1" stopTime="0.00" timeLoss="98.53" rerouteNo="0" devices="tripinfo_8" vType="DEFAULT_VEHTYPE" speedFactor="0.88" vaporized=""/>
    <tripinfo id="27" depart="98.00" departLane="448266581#0_0" departPos="5.10" departSpeed="0.00" departDelay="0.80" arrival="174.00" arrivalLane="668307633#3_0" arrivalPos="112.63" arrivalSpeed="17.44" duration="76.00" routeLength="489.91" waitingTime="35.00" waitingCount="1" stopTime="0.00" timeLoss="48.22" rerouteNo="0" devices="tripinfo_27" vType="DEFAULT_VEHTYPE" speedFactor="1.08" vaporized=""/>
    <tripinfo id="14" depart="51.00" departLane="668307639#0_0" departPos="5.10" departSpeed="0.00" departDelay="0.60" arrival="175.00" arrivalLane="668307633#3_1" arrivalPos="112.63" arrivalSpeed="15.48" duration="124.00" routeLength="623.09" waitingTime="67.00" waitingCount="1" stopTime="0.00" timeLoss="81.54" rerouteNo="0" devices="tripinfo_14" vType="DEFAULT_VEHTYPE" speedFactor="0.95" vaporized=""/>
    <tripinfo id="32" depart="116.00" departLane="668307639#0_0" departPos="5.10" departSpeed="0.00" departDelay="0.80" arrival="175.00" arrivalLane="778823268#0_0" arrivalPos="238.22" arrivalSpeed="15.11" duration="59.00" routeLength="503.37" waitingTime="16.00" waitingCount="1" stopTime="0.00" timeLoss="27.42" rerouteNo="0" devices="tripinfo_32" vType="DEFAULT_VEHTYPE" speedFactor="1.11" vaporized=""/>
    <tripinfo id="19" depart="69.00" departLane="668307639#0_0" departPos="5.10" departSpeed="0.00" departDelay="0.60" arrival="178.00" arrivalLane="668307633#3_1" arrivalPos="112.63" arrivalSpeed="14.89" duration="109.00" routeLength="625.14" waitingTime="37.00" waitingCount="3" stopTime="0.00" timeLoss="63.15" rerouteNo="0" devices="tripinfo_19" vType="DEFAULT_VEHTYPE" speedFactor="0.89" vaporized=""/>
    <tripinfo id="40" depart="144.00" departLane="448266581#0_0" departPos="5.10" departSpeed="0.00" departDelay="0.00" arrival="178.00" arrivalLane="119238385#0_0" arrivalPos="144.87" arrivalSpeed="14.21" duration="34.00" routeLength="416.20" waitingTime="0.00" waitingCount="0" stopTime="0.00" timeLoss="6.80" rerouteNo="0" devices="tripinfo_40" vType="DEFAULT_VEHTYPE" speedFactor="1.07" vaporized=""/>
    <tripinfo id="39" depart="141.00" departLane="232079775#2_0" departPos="5.10" departSpeed="0.00" departDelay="0.60" arrival="187.00" arrivalLane="119238385#0_0" arrivalPos="144.87" arrivalSpeed="14.21" duration="46.00" routeLength="347.78" waitingTime="10.00" waitingCount="1" stopTime="0.00" timeLoss="21.13" rerouteNo="0" devices="tripinfo_39" vType="DEFAULT_VEHTYPE" speedFactor="1.04" vaporized=""/>
    <tripinfo id="42" depart="152.00" departLane="232079775#2_0" departPos="5.10" departSpeed="0.00" departDelay="0.80" arrival="189.00" arrivalLane="119238385#0_0" arrivalPos="144.87" arrivalSpeed="12.50" duration="37.00" routeLength="347.78" waitingTime="1.00" waitingCount="1" stopTime="0.00" timeLoss="10.86" rerouteNo="0" devices="tripinfo_42" vType="DEFAULT_VEHTYPE" speedFactor="0.96" vaporized=""/>
    <tripinfo id="41" depart="148.00" departLane="448266581#0_0" departPos="5.10" departSpeed="0.00" departDelay="0.40" arrival="198.00" arrivalLane="E1_1" arrivalPos="103.00" arrivalSpeed="13.40" duration="50.00" routeLength="448.81" waitingTime="3.00" waitingCount="1" stopTime="0.00" timeLoss="17.23" rerouteNo="0" devices="tripinfo_41" vType="DEFAULT_VEHTYPE" speedFactor="0.98" vaporized=""/>
    <tripinfo id="37" depart="134.00" departLane="448266581#0_0" departPos="5.10" departSpeed="0.00" departDelay="0.80" arrival="199.00" arrivalLane="44499684#3_1" arrivalPos="84.04" arrivalSpeed="14.31" duration="65.00" routeLength="512.41" waitingTime="10.00" waitingCount="1" stopTime="0.00" timeLoss="26.34" rerouteNo="0" devices="tripinfo_37" vType="DEFAULT_VEHTYPE" speedFactor="0.89" vaporized=""/>
    <tripinfo id="47" depart="170.00" departLane="-778823268#1_0" departPos="5.10" departSpeed="0.00" departDelay="0.80" arrival="208.00" arrivalLane="44499684#3_0" arrivalPos="84.04" arrivalSpeed="17.06" duration="38.00" routeLength="453.00" waitingTime="0.00" waitingCount="0" stopTime="0.00" timeLoss="8.18" rerouteNo="0" devices="tripinfo_47" vType="DEFAULT_VEHTYPE" speedFactor="1.04" vaporized=""/>
    <tripinfo id="46" depart="166.00" departLane="668307639#0_0" departPos="5.10" departSpeed="0.00" departDelay="0.40" arrival="220.00" arrivalLane="44499684#3_0" arrivalPos="84.04" arrivalSpeed="17.24" duration="54.00" routeLength="485.82" waitingTime="13.00" waitingCount="1" stopTime="0.00" timeLoss="25.59" rerouteNo="0" devices="tripinfo_46" vType="DEFAULT_VEHTYPE" speedFactor="1.06" vaporized=""/>
    <tripinfo id="51" depart="184.00" departLane="448266581#0_0" departPos="5.10" departSpeed="0.00" departDelay="0.40" arrival="223.00" arrivalLane="668307633#3_0" arrivalPos="112.63" arrivalSpeed="14.52" duration="39.00" routeLength="489.91" waitingTime="0.00" waitingCount="0" stopTime="0.00" timeLoss="4.46" rerouteNo="0" devices="tripinfo_51" vType="DEFAULT_VEHTYPE" speedFactor="0.88" vaporized=""/>
    <tripinfo id="49" depart="177.00" departLane="668307639#0_0" departPos="5.10" departSpeed="0.00" departDelay="0.60" arrival="226.00" arrivalLane="E1_1" arrivalPos="103.00" arrivalSpeed="12.67" duration="49.00" routeLength="411.03" waitingTime="4.00" waitingCount="1" stopTime="0.00" timeLoss="20.83" rerouteNo="0" devices="tripinfo_49" vType="DEFAULT_VEHTYPE" speedFactor="0.99" vaporized=""/>
    <tripinfo id="53" depart="191.00" departLane="-778823268#1_0" departPos="5.10" departSpeed="0.00" departDelay="0.20" arrival="229.00" arrivalLane="44499684#3_0" arrivalPos="84.04" arrivalSpeed="16.62" duration="38.00" routeLength="453.00" waitingTime="0.00" waitingCount="0" stopTime="0.00" timeLoss="8.48" rerouteNo="0" devices="tripinfo_53" vType="DEFAULT_VEHTYPE" speedFactor="1.06" vaporized=""/>
    <tripinfo id="52" depart="188.00" departLane="232079775#2_0" departPos="5.10" departSpeed="0.00" departDelay="0.80" arrival="231.00" arrivalLane="668307633#3_0" arrivalPos="112.63" arrivalSpeed="13.78" duration="43.00" routeLength="455.41" waitingTime="0.00" waitingCount="0" stopTime="0.00" timeLoss="7.13" rerouteNo="0" devices="tripinfo_52" vType="DEFAULT_VEHTYPE" speedFactor="0.86" vaporized=""/>
    <tripinfo id="56" depart="202.00" departLane="448266581#0_0" departPos="5.10" departSpeed="0.00" departDelay="0.40" arrival="240.00" arrivalLane="119238385#0_0" arrivalPos="144.87" arrivalSpeed="11.78" duration="38.00" routeLength="416.20" waitingTime="0.00" waitingCount="0" stopTime="0.00" timeLoss="5.64" rerouteNo="0" devices="tripinfo_56" vType="DEFAULT_VEHTYPE" speedFactor="0.92" vaporized=""/>
    <tripinfo id="57" depart="206.00" departLane="668307639#0_0" departPos="5.10" departSpeed="0.00" departDelay="0.80" arrival="243.00" arrivalLane="E1_1" arrivalPos="103.00" arrivalSpeed="12.27" duration="37.00" routeLength="411.03" waitingTime="0.00" waitingCount="0" stopTime="0.00" timeLoss="7.91" rerouteNo="0" devices="tripinfo_57" vType="DEFAULT_VEHTYPE" speedFactor="0.96" vaporized=""/>
    <tripinfo id="59" depart="213.00" departLane="448266581#0_0" departPos="5.10" departSpeed="0.00" departDelay="0.60" arrival="244.00" arrivalLane="119238380#0_0" arrivalPos="135.86" arrivalSpeed="13.02" duration="31.00" routeLength="354.71" waitingTime="0.00" waitingCount="0" stopTime="0.00" timeLoss="7.16" rerouteNo="0" devices="tripinfo_59" vType="DEFAULT_VEHTYPE" speedFactor="1.02" vaporized=""/>
    <tripinfo id="58" depart="209.00" departLane="232079775#2_0" departPos="5.10" departSpeed="0.00" departDelay="0.20" arrival="261.00" arrivalLane="668307633#3_0" arrivalPos="112.63" arrivalSpeed="11.03" duration="52.00" routeLength="455.41" waitingTime="0.00" waitingCount="0" stopTime="0.00" timeLoss="7.34" rerouteNo="0" devices="tripinfo_58" vType="DEFAULT_VEHTYPE" speedFactor="0.68" vaporized=""/>
    <tripinfo id="54" depart="195.00" departLane="232079775#2_0" departPos="5.10" departSpeed="0.00" departDelay="0.60" arrival="272.00" arrivalLane="E1_1" arrivalPos="103.00" arrivalSpeed="11.81" duration="77.00" routeLength="382.90" waitingTime="34.00" waitingCount="1" stopTime="0.00" timeLoss="45.54" rerouteNo="0" devices="tripinfo_54" vType="DEFAULT_VEHTYPE" speedFactor="0.90" vaporized=""/>
    <tripinfo id="72" depart="260.00" departLane="232079775#2_0" departPos="5.10" departSpeed="0.00" departDelay="0.80" arrival="292.00" arrivalLane="119238385#0_0" arrivalPos="144.87" arrivalSpeed="12.56" duration="32.00" routeLength="347.78" waitingTime="0.00" waitingCount="0" stopTime="0.00" timeLoss="5.18" rerouteNo="0" devices="tripinfo_72" vType="DEFAULT_VEHTYPE" speedFactor="0.96" vaporized=""/>
    <tripinfo id="70" depart="252.00" departLane="232079775#2_0" departPos="5.10" departSpeed="0.00" departDelay="0.00" arrival="294.00" arrivalLane="668307633#3_0" arrivalPos="112.63" arrivalSpeed="14.68" duration="42.00" routeLength="455.41" waitingTime="0.00" waitingCount="0" stopTime="0.00" timeLoss="8.65" rerouteNo="0" devices="tripinfo_70" vType="DEFAULT_VEHTYPE" speedFactor="0.93" vaporized=""/>
    <tripinfo id="76" depart="274.00" departLane="232079775#2_0" departPos="5.10" departSpeed="0.00" departDelay="0.40" arrival="311.00" arrivalLane="668307633#3_0" arrivalPos="112.63" arrivalSpeed="17.87" duration="37.00" routeLength="455.41" waitingTime="0.00" waitingCount="0" stopTime="0.00" timeLoss="9.81" rerouteNo="0" devices="tripinfo_76" vType="DEFAULT_VEHTYPE" speedFactor="1.10" vaporized=""/>
    <tripinfo id="73" depart="263.00" departLane="448266581#0_0" departPos="5.10" departSpeed="0.00" departDelay="0.20" arrival="315.00" arrivalLane="778823268#0_0" arrivalPos="238.22" arrivalSpeed="12.11" duration="52.00" routeLength="546.01" waitingTime="0.00" waitingCount="0" stopTime="0.00" timeLoss="9.02" rerouteNo="0" devices="tripinfo_73" vType="DEFAULT_VEHTYPE" speedFactor="0.91" vaporized=""/>
    <tripinfo id="78" depart="281.00" departLane="232079775#2_0" departPos="5.10" departSpeed="0.00" departDelay="0.20" arrival="316.00" arrivalLane="668307633#3_0" arrivalPos="112.63" arrivalSpeed="19.79" duration="35.00" routeLength="455.41" waitingTime="0.00" waitingCount="0" stopTime="0.00" timeLoss="10.58" rerouteNo="0" devices="tripinfo_78" vType="DEFAULT_VEHTYPE" speedFactor="1.26" vaporized=""/>
    <tripinfo id="64" depart="231.00" departLane="668307639#0_0" departPos="5.10" departSpeed="0.00" departDelay="0.60" arrival="327.00" arrivalLane="778823268#0_0" arrivalPos="238.22" arrivalSpeed="13.10" duration="96.00" routeLength="503.37" waitingTime="49.00" waitingCount="1" stopTime="0.00" timeLoss="60.46" rerouteNo="0" devices="tripinfo_64" vType="DEFAULT_VEHTYPE" speedFactor="0.98" vaporized=""/>
    <tripinfo id="44" depart="159.00" departLane="-778823268#1_0" departPos="5.10" departSpeed="0.00" departDelay="0.60" arrival="346.00" arrivalLane="119238380#0_0" arrivalPos="135.86" arrivalSpeed="14.82" duration="187.00" routeLength="461.48" waitingTime="145.00" waitingCount="1" stopTime="0.00" timeLoss="155.88" rerouteNo="0" devices="tripinfo_44" vType="DEFAULT_VEHTYPE" speedFactor="1.09" vaporized=""/>
    <tripinfo id="63" depart="227.00" departLane="-778823268#1_0" departPos="5.10" departSpeed="0.00" departDelay="0.20" arrival="347.00" arrivalLane="E1_0" arrivalPos="103.00" arrivalSpeed="12.10" duration="120.00" routeLength="369.88" waitingTime="82.00" waitingCount="1" stopTime="0.00" timeLoss="91.16" rerouteNo="0" devices="tripinfo_63" vType="DEFAULT_VEHTYPE" speedFactor="0.95" vaporized=""/>
    <tripinfo id="36" depart="130.00" departLane="668307639#0_0" departPos="5.10" departSpeed="0.00" departDelay="0.40" arrival="352.00" arrivalLane="119238385#0_0" arrivalPos="144.87" arrivalSpeed="11.37" duration="222.00" routeLength="559.31" waitingTime="163.00" waitingCount="2" stopTime="0.00" timeLoss="178.89" rerouteNo="0" devices="tripinfo_36" vType="DEFAULT_VEHTYPE" speedFactor="0.91" vaporized=""/>
    <tripinfo id="86" depart="310.00" departLane="232079775#2_0" departPos="5.10" departSpeed="0.00" departDelay="0.40" arrival="352.00" arrivalLane="778823268#0_0" arrivalPos="238.22" arrivalSpeed="13.09" duration="42.00" routeLength="480.10" waitingTime="0.00" waitingCount="0" stopTime="0.00" timeLoss="7.09" rerouteNo="0" devices="tripinfo_86" vType="DEFAULT_VEHTYPE" speedFactor="1.00" vaporized=""/>
    <tripinfo id="67" depart="242.00" departLane="-778823268#1_0" departPos="5.10" departSpeed="0.00" departDelay="0.80" arrival="354.00" arrivalLane="44499684#3_0" arrivalPos="84.04" arrivalSpeed="16.72" duration="112.00" routeLength="453.00" waitingTime="69.00" waitingCount="1" stopTime="0.00" timeLoss="81.89" rerouteNo="0" devices="tripinfo_67" vType="DEFAULT_VEHTYPE" speedFactor="1.05" vaporized=""/>
    <tripinfo id="55" depart="198.00" departLane="668307639#0_0" departPos="5.10" departSpeed="0.00" departDelay="0.00" arrival="357.00" arrivalLane="119238385#0_0" arrivalPos="144.87" arrivalSpeed="12.54" duration="159.00" routeLength="556.93" waitingTime="102.00" waitingCount="1" stopTime="0.00" timeLoss="116.73" rerouteNo="0" devices="tripinfo_55" vType="DEFAULT_VEHTYPE" speedFactor="0.92" vaporized=""/>
    <tripinfo id="62" depart="224.00" departLane="-778823268#1_0" departPos="5.10" departSpeed="0.00" departDelay="0.80" arrival="358.00" arrivalLane="119238385#0_0" arrivalPos="144.87" arrivalSpeed="13.05" duration="134.00" routeLength="522.97" waitingTime="83.00" waitingCount="1" stopTime="0.00" timeLoss="94.82" rerouteNo="0" devices="tripinfo_62" vType="DEFAULT_VEHTYPE" speedFactor="0.98" vaporized=""/>
    <tripinfo id="65" depart="234.00" departLane="232079775#2_0" departPos="5.10" departSpeed="0.00" departDelay="0.00" arrival="360.00" arrivalLane="119238380#0_0" arrivalPos="135.86" arrivalSpeed="10.98" duration="126.00" routeLength="467.31" waitingTime="72.00" waitingCount="2" stopTime="0.00" timeLoss="86.73" rerouteNo="0" devices="tripinfo_65" vType="DEFAULT_VEHTYPE" speedFactor="0.87" vaporized=""/>
    <tripinfo id="81" depart="292.00" departLane="-778823268#1_0" departPos="5.10" departSpeed="0.00" departDelay="0.40" arrival="362.00" arrivalLane="E1_0" arrivalPos="103.00" arrivalSpeed="12.06" duration="70.00" routeLength="369.88" waitingTime="23.00" waitingCount="1" stopTime="0.00" timeLoss="38.66" rerouteNo="0" devices="tripinfo_81" vType="DEFAULT_VEHTYPE" speedFactor="0.87" vaporized=""/>
    <tripinfo id="50" depart="180.00" departLane="-778823268#1_0" departPos="5.10" departSpeed="0.00" departDelay="0.00" arrival="365.00" arrivalLane="778823268#0_0" arrivalPos="238.22" arrivalSpeed="13.88" duration="185.00" routeLength="655.26" waitingTime="125.00" waitingCount="1" stopTime="0.00" timeLoss="139.42" rerouteNo="0" devices="tripinfo_50" vType="DEFAULT_VEHTYPE" speedFactor="1.08" vaporized=""/>
    <tripinfo id="74" depart="267.00" departLane="-778823268#1_0" departPos="5.10" departSpeed="0.00" departDelay="0.60" arrival="365.00" arrivalLane="119238385#0_0" arrivalPos="144.87" arrivalSpeed="15.16" duration="98.00" routeLength="522.97" waitingTime="47.00" waitingCount="1" stopTime="0.00" timeLoss="62.92" rerouteNo="0" devices="tripinfo_74" vType="DEFAULT_VEHTYPE" speedFactor="1.11" vaporized=""/>