<?xml version="1.0" encoding="UTF-8"?>

<!-- generated on 2024-08-31 19:36:33 by Eclipse SUMO sumo Version 1.20.0
<configuration xmlns:xsi="http://www.w3.org/2001/XMLSchema-instance" xsi:noNamespaceSchemaLocation="http://sumo.dlr.de/xsd/sumoConfiguration.xsd">

    <input>
        <net-file value="c:\self\School\Master\Disertation\code\RESCO\resco_benchmark\environments/romana/osm.net.xml.gz"/>
        <route-files value="c:\self\School\Master\Disertation\code\RESCO\resco_benchmark\environments/romana/osm.passenger.trips.xml"/>
        <additional-files value="c:\self\School\Master\Disertation\code\RESCO\resco_benchmark\environments/romana/osm.poly.xml.gz"/>
    </input>

    <output>
        <tripinfo-output value="C:\self\School\Master\Disertation\code\RESCO\results\IPPO-tr0-romana-0-drq_norm-wait_norm\tripinfo_27.xml"/>
        <tripinfo-output.write-unfinished value="true"/>
    </output>

    <processing>
        <ignore-route-errors value="true"/>
        <time-to-teleport value="-1"/>
    </processing>

    <routing>
        <device.rerouting.adaptation-steps value="18"/>
        <device.rerouting.adaptation-interval value="10"/>
    </routing>

    <report>
        <verbose value="true"/>
        <no-warnings value="True"/>
        <duration-log.statistics value="true"/>
        <no-step-log value="True"/>
    </report>

    <traci_server>
        <remote-port value="59754"/>
    </traci_server>

    <random_number>
        <random value="true"/>
    </random_number>

    <gui_only>
        <gui-settings-file value="c:\self\School\Master\Disertation\code\RESCO\resco_benchmark\environments/romana/osm.view.xml"/>
    </gui_only>

</configuration>
-->

<tripinfos xmlns:xsi="http://www.w3.org/2001/XMLSchema-instance" xsi:noNamespaceSchemaLocation="http://sumo.dlr.de/xsd/tripinfo_file.xsd">
    <tripinfo id="1" depart="4.00" departLane="232079775#2_0" departPos="5.10" departSpeed="0.00" departDelay="0.40" arrival="35.00" arrivalLane="119238385#0_0" arrivalPos="144.87" arrivalSpeed="12.11" duration="31.00" routeLength="347.78" waitingTime="0.00" waitingCount="0" stopTime="0.00" timeLoss="4.79" rerouteNo="0" devices="tripinfo_1" vType="DEFAULT_VEHTYPE" speedFactor="0.96" vaporized=""/>
    <tripinfo id="0" depart="0.00" departLane="448266581#0_0" departPos="5.10" departSpeed="0.00" departDelay="0.00" arrival="45.00" arrivalLane="119238380#0_0" arrivalPos="135.86" arrivalSpeed="13.56" duration="45.00" routeLength="354.71" waitingTime="11.00" waitingCount="1" stopTime="0.00" timeLoss="20.52" rerouteNo="0" devices="tripinfo_0" vType="DEFAULT_VEHTYPE" speedFactor="0.98" vaporized=""/>
    <tripinfo id="3" depart="11.00" departLane="668307639#0_0" departPos="5.10" departSpeed="0.00" departDelay="0.20" arrival="68.00" arrivalLane="119238380#0_0" arrivalPos="135.86" arrivalSpeed="14.14" duration="57.00" routeLength="495.44" waitingTime="13.00" waitingCount="1" stopTime="0.00" timeLoss="26.15" rerouteNo="0" devices="tripinfo_3" vType="DEFAULT_VEHTYPE" speedFactor="1.09" vaporized=""/>
    <tripinfo id="2" depart="8.00" departLane="448266581#0_0" departPos="5.10" departSpeed="0.00" departDelay="0.80" arrival="74.00" arrivalLane="778823268#0_0" arrivalPos="238.22" arrivalSpeed="13.10" duration="66.00" routeLength="547.37" waitingTime="10.00" waitingCount="2" stopTime="0.00" timeLoss="26.83" rerouteNo="0" devices="tripinfo_2" vType="DEFAULT_VEHTYPE" speedFactor="1.01" vaporized=""/>
    <tripinfo id="4" depart="15.00" departLane="232079775#2_0" departPos="5.10" departSpeed="0.00" departDelay="0.60" arrival="75.00" arrivalLane="119238380#0_0" arrivalPos="135.86" arrivalSpeed="12.37" duration="60.00" routeLength="467.31" waitingTime="11.00" waitingCount="1" stopTime="0.00" timeLoss="23.12" rerouteNo="0" devices="tripinfo_4" vType="DEFAULT_VEHTYPE" speedFactor="0.94" vaporized=""/>
    <tripinfo id="6" depart="22.00" departLane="-778823268#1_0" departPos="5.10" departSpeed="0.00" departDelay="0.40" arrival="76.00" arrivalLane="119238385#0_0" arrivalPos="144.87" arrivalSpeed="13.72" duration="54.00" routeLength="522.97" waitingTime="8.00" waitingCount="1" stopTime="0.00" timeLoss="17.72" rerouteNo="0" devices="tripinfo_6" vType="DEFAULT_VEHTYPE" speedFactor="1.08" vaporized=""/>
    <tripinfo id="11" depart="40.00" departLane="232079775#2_0" departPos="5.10" departSpeed="0.00" departDelay="0.40" arrival="83.00" arrivalLane="119238380#0_0" arrivalPos="135.86" arrivalSpeed="14.57" duration="43.00" routeLength="467.31" waitingTime="0.00" waitingCount="0" stopTime="0.00" timeLoss="10.07" rerouteNo="0" devices="tripinfo_11" vType="DEFAULT_VEHTYPE" speedFactor="1.06" vaporized=""/>
    <tripinfo id="13" depart="47.00" departLane="-778823268#1_0" departPos="5.10" departSpeed="0.00" departDelay="0.20" arrival="88.00" arrivalLane="119238380#0_0" arrivalPos="135.86" arrivalSpeed="13.38" duration="41.00" routeLength="461.48" waitingTime="0.00" waitingCount="0" stopTime="0.00" timeLoss="5.73" rerouteNo="0" devices="tripinfo_13" vType="DEFAULT_VEHTYPE" speedFactor="0.98" vaporized=""/>
    <tripinfo id="12" depart="44.00" departLane="668307639#0_0" departPos="5.10" departSpeed="0.00" departDelay="0.80" arrival="95.00" arrivalLane="44499684#3_1" arrivalPos="84.04" arrivalSpeed="18.14" duration="51.00" routeLength="486.19" waitingTime="10.00" waitingCount="1" stopTime="0.00" timeLoss="23.16" rerouteNo="0" devices="tripinfo_12" vType="DEFAULT_VEHTYPE" speedFactor="1.09" vaporized=""/>
    <tripinfo id="7" depart="26.00" departLane="448266581#0_0" departPos="5.10" departSpeed="0.00" departDelay="0.80" arrival="96.00" arrivalLane="668307633#3_0" arrivalPos="112.63" arrivalSpeed="17.43" duration="70.00" routeLength="489.91" waitingTime="31.00" waitingCount="1" stopTime="0.00" timeLoss="41.99" rerouteNo="0" devices="tripinfo_7" vType="DEFAULT_VEHTYPE" speedFactor="1.06" vaporized=""/>
    <tripinfo id="8" depart="29.00" departLane="-778823268#1_0" departPos="5.10" departSpeed="0.00" departDelay="0.20" arrival="97.00" arrivalLane="668307633#3_2" arrivalPos="112.63" arrivalSpeed="14.97" duration="68.00" routeLength="595.69" waitingTime="13.00" waitingCount="1" stopTime="0.00" timeLoss="25.52" rerouteNo="0" devices="tripinfo_8" vType="DEFAULT_VEHTYPE" speedFactor="0.95" vaporized=""/>
    <tripinfo id="5" depart="18.00" departLane="-778823268#1_0" departPos="5.10" departSpeed="0.00" departDelay="0.00" arrival="98.00" arrivalLane="668307633#3_1" arrivalPos="112.63" arrivalSpeed="15.77" duration="80.00" routeLength="595.69" waitingTime="23.00" waitingCount="2" stopTime="0.00" timeLoss="37.01" rerouteNo="0" devices="tripinfo_5" vType="DEFAULT_VEHTYPE" speedFactor="0.95" vaporized=""/>
    <tripinfo id="10" depart="36.00" departLane="668307639#0_0" departPos="5.10" departSpeed="0.00" departDelay="0.00" arrival="101.00" arrivalLane="778823268#0_0" arrivalPos="238.22" arrivalSpeed="13.70" duration="65.00" routeLength="503.37" waitingTime="21.00" waitingCount="1" stopTime="0.00" timeLoss="31.74" rerouteNo="0" devices="tripinfo_10" vType="DEFAULT_VEHTYPE" speedFactor="1.05" vaporized=""/>
    <tripinfo id="17" depart="62.00" departLane="232079775#2_0" departPos="5.10" departSpeed="0.00" departDelay="0.80" arrival="104.00" arrivalLane="668307633#3_0" arrivalPos="112.63" arrivalSpeed="15.65" duration="42.00" routeLength="455.41" waitingTime="0.00" waitingCount="0" stopTime="0.00" timeLoss="9.45" rerouteNo="0" devices="tripinfo_17" vType="DEFAULT_VEHTYPE" speedFactor="0.95" vaporized=""/>
    <tripinfo id="20" depart="72.00" departLane="448266581#0_0" departPos="5.10" departSpeed="0.00" departDelay="0.00" arrival="105.00" arrivalLane="119238380#0_0" arrivalPos="135.86" arrivalSpeed="12.55" duration="33.00" routeLength="354.71" waitingTime="0.00" waitingCount="0" stopTime="0.00" timeLoss="5.80" rerouteNo="0" devices="tripinfo_20" vType="DEFAULT_VEHTYPE" speedFactor="0.91" vaporized=""/>
    <tripinfo id="15" depart="54.00" departLane="668307639#0_0" departPos="5.10" departSpeed="0.00" departDelay="0.00" arrival="107.00" arrivalLane="778823268#0_0" arrivalPos="238.22" arrivalSpeed="12.72" duration="53.00" routeLength="503.37" waitingTime="3.00" waitingCount="1" stopTime="0.00" timeLoss="15.37" rerouteNo="0" devices="tripinfo_15" vType="DEFAULT_VEHTYPE" speedFactor="0.92" vaporized=""/>
    <tripinfo id="25" depart="90.00" departLane="232079775#2_0" departPos="5.10" departSpeed="0.00" departDelay="0.00" arrival="127.00" arrivalLane="119238385#0_0" arrivalPos="144.87" arrivalSpeed="14.00" duration="37.00" routeLength="347.78" waitingTime="3.00" waitingCount="1" stopTime="0.00" timeLoss="12.86" rerouteNo="0" devices="tripinfo_25" vType="DEFAULT_VEHTYPE" speedFactor="1.07" vaporized=""/>
    <tripinfo id="16" depart="58.00" departLane="448266581#0_0" departPos="5.10" departSpeed="0.00" departDelay="0.40" arrival="140.00" arrivalLane="E1_1" arrivalPos="103.00" arrivalSpeed="14.54" duration="82.00" routeLength="448.81" waitingTime="36.00" waitingCount="2" stopTime="0.00" timeLoss="51.69" rerouteNo="0" devices="tripinfo_16" vType="DEFAULT_VEHTYPE" speedFactor="1.05" vaporized=""/>
    <tripinfo id="9" depart="33.00" departLane="668307639#0_0" departPos="5.10" departSpeed="0.00" departDelay="0.60" arrival="144.00" arrivalLane="119238380#0_0" arrivalPos="135.86" arrivalSpeed="14.92" duration="111.00" routeLength="497.82" waitingTime="60.00" waitingCount="2" stopTime="0.00" timeLoss="79.44" rerouteNo="0" devices="tripinfo_9" vType="DEFAULT_VEHTYPE" speedFactor="1.09" vaporized=""/>
    <tripinfo id="29" depart="105.00" departLane="-778823268#1_0" departPos="5.10" departSpeed="0.00" departDelay="0.60" arrival="150.00" arrivalLane="44499684#3_0" arrivalPos="84.04" arrivalSpeed="18.58" duration="45.00" routeLength="453.00" waitingTime="5.00" waitingCount="1" stopTime="0.00" timeLoss="17.03" rerouteNo="0" devices="tripinfo_29" vType="DEFAULT_VEHTYPE" speedFactor="1.14" vaporized=""/>
    <tripinfo id="21" depart="76.00" departLane="-778823268#1_0" departPos="5.10" departSpeed="0.00" departDelay="0.40" arrival="153.00" arrivalLane="119238385#0_0" arrivalPos="144.87" arrivalSpeed="13.56" duration="77.00" routeLength="522.97" waitingTime="23.00" waitingCount="1" stopTime="0.00" timeLoss="37.43" rerouteNo="0" devices="tripinfo_21" vType="DEFAULT_VEHTYPE" speedFactor="0.98" vaporized=""/>
    <tripinfo id="33" depart="119.00" departLane="-778823268#1_0" departPos="5.10" departSpeed="0.00" departDelay="0.20" arrival="153.00" arrivalLane="119238380#0_0" arrivalPos="135.86" arrivalSpeed="15.42" duration="34.00" routeLength="461.48" waitingTime="0.00" waitingCount="0" stopTime="0.00" timeLoss="5.11" rerouteNo="0" devices="tripinfo_33" vType="DEFAULT_VEHTYPE" speedFactor="1.17" vaporized=""/>
    <tripinfo id="22" depart="80.00" departLane="-778823268#1_0" departPos="5.10" departSpeed="0.00" departDelay="0.80" arrival="154.00" arrivalLane="119238385#0_0" arrivalPos="144.87" arrivalSpeed="14.66" duration="74.00" routeLength="522.97" waitingTime="23.00" waitingCount="1" stopTime="0.00" timeLoss="37.65" rerouteNo="0" devices="tripinfo_22" vType="DEFAULT_VEHTYPE" speedFactor="1.06" vaporized=""/>
    <tripinfo id="26" depart="94.00" departLane="232079775#2_0" departPos="5.10" departSpeed="0.00" departDelay="0.40" arrival="154.00" arrivalLane="E1_1" arrivalPos="103.00" arrivalSpeed="12.87" duration="60.00" routeLength="382.90" waitingTime="13.00" waitingCount="2" stopTime="0.00" timeLoss="30.10" rerouteNo="0" devices="tripinfo_26" vType="DEFAULT_VEHTYPE" speedFactor="0.95" vaporized=""/>
    <tripinfo id="35" depart="126.00" departLane="-778823268#1_0" departPos="5.10" departSpeed="0.00" departDelay="0.00" arrival="157.00" arrivalLane="E1_0" arrivalPos="103.00" arrivalSpeed="14.34" duration="31.00" routeLength="369.88" waitingTime="0.00" waitingCount="0" stopTime="0.00" timeLoss="5.89" rerouteNo="0" devices="tripinfo_35" vType="DEFAULT_VEHTYPE" speedFactor="1.07" vaporized=""/>
    <tripinfo id="23" depart="83.00" departLane="-778823268#1_0" departPos="5.10" departSpeed="0.00" departDelay="0.20" arrival="158.00" arrivalLane="119238385#0_0" arrivalPos="144.87" arrivalSpeed="12.28" duration="75.00" routeLength="522.97" waitingTime="23.00" waitingCount="1" stopTime="0.00" timeLoss="35.19" rerouteNo="0" devices="tripinfo_23" vType="DEFAULT_VEHTYPE" speedFactor="0.97" vaporized=""/>
    <tripinfo id="34" depart="123.00" departLane="232079775#2_0" departPos="5.10" departSpeed="0.00" departDelay="0.60" arrival="162.00" arrivalLane="119238385#0_0" arrivalPos="144.87" arrivalSpeed="14.01" duration="39.00" routeLength="347.78" waitingTime="4.00" waitingCount="1" stopTime="0.00" timeLoss="13.87" rerouteNo="0" devices="tripinfo_34" vType="DEFAULT_VEHTYPE" speedFactor="1.02" vaporized=""/>
    <tripinfo id="28" depart="101.00" departLane="-778823268#1_0" departPos="5.10" departSpeed="0.00" departDelay="0.20" arrival="166.00" arrivalLane="778823268#0_0" arrivalPos="238.22" arrivalSpeed="15.22" duration="65.00" routeLength="655.26" waitingTime="7.00" waitingCount="1" stopTime="0.00" timeLoss="22.32" rerouteNo="0" devices="tripinfo_28" vType="DEFAULT_VEHTYPE" speedFactor="1.15" vaporized=""/>
    <tripinfo id="39" depart="141.00" departLane="232079775#2_0" departPos="5.10" departSpeed="0.00" departDelay="0.60" arrival="171.00" arrivalLane="119238385#0_0" arrivalPos="144.87" arrivalSpeed="14.84" duration="30.00" routeLength="347.78" waitingTime="0.00" waitingCount="0" stopTime="0.00" timeLoss="6.82" rerouteNo="0" devices="tripinfo_39" vType="DEFAULT_VEHTYPE" speedFactor="1.11" vaporized=""/>
    <tripinfo id="36" depart="130.00" departLane="668307639#0_0" departPos="5.10" departSpeed="0.00" departDelay="0.40" arrival="177.00" arrivalLane="119238385#0_0" arrivalPos="144.87" arrivalSpeed="16.56" duration="47.00" routeLength="559.31" waitingTime="2.00" waitingCount="1" stopTime="0.00" timeLoss="15.77" rerouteNo="0" devices="tripinfo_36" vType="DEFAULT_VEHTYPE" speedFactor="1.24" vaporized=""/>
    <tripinfo id="32" depart="116.00" departLane="668307639#0_0" departPos="5.10" departSpeed="0.00" departDelay="0.80" arrival="178.00" arrivalLane="778823268#0_0" arrivalPos="238.22" arrivalSpeed="11.82" duration="62.00" routeLength="503.37" waitingTime="12.00" waitingCount="1" stopTime="0.00" timeLoss="25.00" rerouteNo="0" devices="tripinfo_32" vType="DEFAULT_VEHTYPE" speedFactor="0.92" vaporized=""/>
    <tripinfo id="42" depart="152.00" departLane="232079775#2_0" departPos="5.10" departSpeed="0.00" departDelay="0.80" arrival="183.00" arrivalLane="119238385#0_0" arrivalPos="144.87" arrivalSpeed="13.24" duration="31.00" routeLength="347.78" waitingTime="0.00" waitingCount="0" stopTime="0.00" timeLoss="5.87" rerouteNo="0" devices="tripinfo_42" vType="DEFAULT_VEHTYPE" speedFactor="1.02" vaporized=""/>
    <tripinfo id="44" depart="159.00" departLane="-778823268#1_0" departPos="5.10" departSpeed="0.00" departDelay="0.60" arrival="203.00" arrivalLane="119238380#0_0" arrivalPos="135.86" arrivalSpeed="11.19" duration="44.00" routeLength="461.48" waitingTime="0.00" waitingCount="0" stopTime="0.00" timeLoss="4.98" rerouteNo="0" devices="tripinfo_44" vType="DEFAULT_VEHTYPE" speedFactor="0.86" vaporized=""/>
    <tripinfo id="47" depart="170.00" departLane="-778823268#1_0" departPos="5.10" departSpeed="0.00" departDelay="0.80" arrival="210.00" arrivalLane="44499684#3_0" arrivalPos="84.04" arrivalSpeed="14.92" duration="40.00" routeLength="453.00" waitingTime="0.00" waitingCount="0" stopTime="0.00" timeLoss="7.41" rerouteNo="0" devices="tripinfo_47" vType="DEFAULT_VEHTYPE" speedFactor="0.96" vaporized=""/>
    <tripinfo id="24" depart="87.00" departLane="448266581#0_0" departPos="5.10" departSpeed="0.00" departDelay="0.60" arrival="219.00" arrivalLane="44499684#3_0" arrivalPos="84.04" arrivalSpeed="14.83" duration="132.00" routeLength="512.41" waitingTime="76.00" waitingCount="2" stopTime="0.00" timeLoss="93.71" rerouteNo="0" devices="tripinfo_24" vType="DEFAULT_VEHTYPE" speedFactor="0.91" vaporized=""/>
    <tripinfo id="38" depart="137.00" departLane="668307639#0_0" departPos="5.10" departSpeed="0.00" departDelay="0.20" arrival="219.00" arrivalLane="44499684#3_1" arrivalPos="84.04" arrivalSpeed="13.29" duration="82.00" routeLength="485.82" waitingTime="36.00" waitingCount="1" stopTime="0.00" timeLoss="47.89" rerouteNo="0" devices="tripinfo_38" vType="DEFAULT_VEHTYPE" speedFactor="0.87" vaporized=""/>
    <tripinfo id="46" depart="166.00" departLane="668307639#0_0" departPos="5.10" departSpeed="0.00" departDelay="0.40" arrival="221.00" arrivalLane="44499684#3_0" arrivalPos="84.04" arrivalSpeed="14.13" duration="55.00" routeLength="485.82" waitingTime="11.00" waitingCount="1" stopTime="0.00" timeLoss="22.31" rerouteNo="0" devices="tripinfo_46" vType="DEFAULT_VEHTYPE" speedFactor="0.91" vaporized=""/>
    <tripinfo id="49" depart="177.00" departLane="668307639#0_0" departPos="5.10" departSpeed="0.00" departDelay="0.60" arrival="221.00" arrivalLane="E1_1" arrivalPos="103.00" arrivalSpeed="11.93" duration="44.00" routeLength="411.03" waitingTime="3.00" waitingCount="1" stopTime="0.00" timeLoss="12.13" rerouteNo="0" devices="tripinfo_49" vType="DEFAULT_VEHTYPE" speedFactor="0.88" vaporized=""/>
    <tripinfo id="14" depart="51.00" departLane="668307639#0_0" departPos="5.10" departSpeed="0.00" departDelay="0.60" arrival="223.00" arrivalLane="668307633#3_1" arrivalPos="112.63" arrivalSpeed="15.18" duration="172.00" routeLength="623.09" waitingTime="108.00" waitingCount="3" stopTime="0.00" timeLoss="128.69" rerouteNo="0" devices="tripinfo_14" vType="DEFAULT_VEHTYPE" speedFactor="0.93" vaporized=""/>
    <tripinfo id="27" depart="98.00" departLane="448266581#0_0" departPos="5.10" departSpeed="0.00" departDelay="0.80" arrival="223.00" arrivalLane="668307633#3_0" arrivalPos="112.63" arrivalSpeed="15.01" duration="125.00" routeLength="489.91" waitingTime="84.00" waitingCount="1" stopTime="0.00" timeLoss="94.24" rerouteNo="0" devices="tripinfo_27" vType="DEFAULT_VEHTYPE" speedFactor="0.96" vaporized=""/>
    <tripinfo id="18" depart="65.00" departLane="668307639#0_0" departPos="5.10" departSpeed="0.00" departDelay="0.20" arrival="224.00" arrivalLane="668307633#3_2" arrivalPos="112.63" arrivalSpeed="14.24" duration="159.00" routeLength="623.09" waitingTime="93.00" waitingCount="2" stopTime="0.00" timeLoss="115.07" rerouteNo="0" devices="tripinfo_18" vType="DEFAULT_VEHTYPE" speedFactor="0.91" vaporized=""/>
    <tripinfo id="19" depart="69.00" departLane="668307639#0_0" departPos="5.10" departSpeed="0.00" departDelay="0.60" arrival="225.00" arrivalLane="668307633#3_1" arrivalPos="112.63" arrivalSpeed="18.80" duration="156.00" routeLength="625.14" waitingTime="91.00" waitingCount="2" stopTime="0.00" timeLoss="122.90" rerouteNo="0" devices="tripinfo_19" vType="DEFAULT_VEHTYPE" speedFactor="1.23" vaporized=""/>
    <tripinfo id="53" depart="191.00" departLane="-778823268#1_0" departPos="5.10" departSpeed="0.00" departDelay="0.20" arrival="227.00" arrivalLane="44499684#3_0" arrivalPos="84.04" arrivalSpeed="18.06" duration="36.00" routeLength="453.00" waitingTime="0.00" waitingCount="0" stopTime="0.00" timeLoss="7.30" rerouteNo="0" devices="tripinfo_53" vType="DEFAULT_VEHTYPE" speedFactor="1.09" vaporized=""/>
    <tripinfo id="30" depart="108.00" departLane="668307639#0_0" departPos="5.10" departSpeed="0.00" departDelay="0.00" arrival="228.00" arrivalLane="668307633#3_1" arrivalPos="112.63" arrivalSpeed="13.41" duration="120.00" routeLength="623.09" waitingTime="55.00" waitingCount="2" stopTime="0.00" timeLoss="74.22" rerouteNo="0" devices="tripinfo_30" vType="DEFAULT_VEHTYPE" speedFactor="0.88" vaporized=""/>
    <tripinfo id="40" depart="144.00" departLane="448266581#0_0" departPos="5.10" departSpeed="0.00" departDelay="0.00" arrival="229.00" arrivalLane="119238385#0_0" arrivalPos="144.87" arrivalSpeed="12.72" duration="85.00" routeLength="416.20" waitingTime="42.00" waitingCount="1" stopTime="0.00" timeLoss="54.47" rerouteNo="0" devices="tripinfo_40" vType="DEFAULT_VEHTYPE" speedFactor="0.98" vaporized=""/>
    <tripinfo id="45" depart="162.00" departLane="-778823268#1_0" departPos="5.10" departSpeed="0.00" departDelay="0.00" arrival="230.00" arrivalLane="668307633#3_1" arrivalPos="112.63" arrivalSpeed="16.53" duration="68.00" routeLength="595.69" waitingTime="13.00" waitingCount="1" stopTime="0.00" timeLoss="28.83" rerouteNo="0" devices="tripinfo_45" vType="DEFAULT_VEHTYPE" speedFactor="1.05" vaporized=""/>
    <tripinfo id="52" depart="188.00" departLane="232079775#2_0" departPos="5.10" departSpeed="0.00" departDelay="0.80" arrival="230.00" arrivalLane="668307633#3_0" arrivalPos="112.63" arrivalSpeed="14.37" duration="42.00" routeLength="455.41" waitingTime="0.00" waitingCount="0" stopTime="0.00" timeLoss="8.38" rerouteNo="0" devices="tripinfo_52" vType="DEFAULT_VEHTYPE" speedFactor="0.93" vaporized=""/>
    <tripinfo id="43" depart="155.00" departLane="668307639#0_0" departPos="5.10" departSpeed="0.00" departDelay="0.20" arrival="232.00" arrivalLane="668307633#3_0" arrivalPos="112.63" arrivalSpeed="13.86" duration="77.00" routeLength="623.09" waitingTime="12.00" waitingCount="2" stopTime="0.00" timeLoss="30.63" rerouteNo="0" devices="tripinfo_43" vType="DEFAULT_VEHTYPE" speedFactor="0.87" vaporized=""/>
    <tripinfo id="51" depart="184.00" departLane="448266581#0_0" departPos="5.10" departSpeed="0.00" departDelay="0.40" arrival="232.00" arrivalLane="668307633#3_1" arrivalPos="112.63" arrivalSpeed="19.14" duration="48.00" routeLength="489.91" waitingTime="6.00" waitingCount="1" stopTime="0.00" timeLoss="21.65" rerouteNo="0" devices="tripinfo_51" vType="DEFAULT_VEHTYPE" speedFactor="1.15" vaporized=""/>
    <tripinfo id="56" depart="202.00" departLane="448266581#0_0" departPos="5.10" departSpeed="0.00" departDelay="0.40" arrival="239.00" arrivalLane="119238385#0_0" arrivalPos="144.87" arrivalSpeed="12.76" duration="37.00" routeLength="416.20" waitingTime="0.00" waitingCount="0" stopTime="0.00" timeLoss="6.53" rerouteNo="0" devices="tripinfo_56" vType="DEFAULT_VEHTYPE" speedFactor="0.97" vaporized=""/>
    <tripinfo id="57" depart="206.00" departLane="668307639#0_0" departPos="5.10" departSpeed="0.00" departDelay="0.80" arrival="244.00" arrivalLane="E1_1" arrivalPos="103.00" arrivalSpeed="13.11" duration="38.00" routeLength="411.03" waitingTime="1.00" waitingCount="1" stopTime="0.00" timeLoss="10.64" rerouteNo="0" devices="tripinfo_57" vType="DEFAULT_VEHTYPE" speedFactor="1.03" vaporized=""/>
    <tripinfo id="59" depart="213.00" departLane="448266581#0_0" departPos="5.10" departSpeed="0.00" departDelay="0.60" arrival="244.00" arrivalLane="119238380#0_0" arrivalPos="135.86" arrivalSpeed="14.97" duration="31.00" routeLength="354.71" waitingTime="0.00" waitingCount="0" stopTime="0.00" timeLoss="8.63" rerouteNo="0" devices="tripinfo_59" vType="DEFAULT_VEHTYPE" speedFactor="1.11" vaporized=""/>
    <tripinfo id="58" depart="209.00" departLane="232079775#2_0" departPos="5.10" departSpeed="0.00" departDelay="0.20" arrival="253.00" arrivalLane="668307633#3_0" arrivalPos="112.63" arrivalSpeed="14.76" duration="44.00" routeLength="455.41" waitingTime="0.00" waitingCount="0" stopTime="0.00" timeLoss="11.68" rerouteNo="0" devices="tripinfo_58" vType="DEFAULT_VEHTYPE" speedFactor="0.96" vaporized=""/>
    <tripinfo id="63" depart="227.00" departLane="-778823268#1_0" departPos="5.10" departSpeed="0.00" departDelay="0.20" arrival="259.00" arrivalLane="E1_0" arrivalPos="103.00" arrivalSpeed="14.27" duration="32.00" routeLength="369.88" waitingTime="0.00" waitingCount="0" stopTime="0.00" timeLoss="6.57" rerouteNo="0" devices="tripinfo_63" vType="DEFAULT_VEHTYPE" speedFactor="1.09" vaporized=""/>
    <tripinfo id="64" depart="231.00" departLane="668307639#0_0" departPos="5.10" departSpeed="0.00" departDelay="0.60" arrival="270.00" arrivalLane="778823268#0_0" arrivalPos="238.22" arrivalSpeed="15.80" duration="39.00" routeLength="503.37" waitingTime="0.00" waitingCount="0" stopTime="0.00" timeLoss="8.74" rerouteNo="0" devices="tripinfo_64" vType="DEFAULT_VEHTYPE" speedFactor="1.14" vaporized=""/>
    <tripinfo id="48" depart="173.00" departLane="668307639#0_0" departPos="5.10" departSpeed="0.00" departDelay="0.20" arrival="278.00" arrivalLane="668307633#3_1" arrivalPos="112.63" arrivalSpeed="15.22" duration="105.00" routeLength="623.09" waitingTime="48.00" waitingCount="1" stopTime="0.00" timeLoss="61.50" rerouteNo="0" devices="tripinfo_48" vType="DEFAULT_VEHTYPE" speedFactor="0.93" vaporized=""/>
    <tripinfo id="55" depart="198.00" departLane="668307639#0_0" departPos="5.10" departSpeed="0.00" departDelay="0.00" arrival="278.00" arrivalLane="119238385#0_0" arrivalPos="144.87" arrivalSpeed="11.60" duration="80.00" routeLength="556.93" waitingTime="22.00" waitingCount="1" stopTime="0.00" timeLoss="35.68" rerouteNo="0" devices="tripinfo_55" vType="DEFAULT_VEHTYPE" speedFactor="0.87" vaporized=""/>
    <tripinfo id="60" depart="216.00" departLane="668307639#0_0" departPos="5.10" departSpeed="0.00" departDelay="0.00" arrival="280.00" arrivalLane="668307633#3_1" arrivalPos="112.63" arrivalSpeed="17.88" duration="64.00" routeLength="623.09" waitingTime="12.00" waitingCount="1" stopTime="0.00" timeLoss="25.85" rerouteNo="0" devices="tripinfo_60" vType="DEFAULT_VEHTYPE" speedFactor="1.08" vaporized=""/>
    <tripinfo id="62" depart="224.00" departLane="-778823268#1_0" departPos="5.10" departSpeed="0.00" departDelay="0.80" arrival="280.00" arrivalLane="119238385#0_0" arrivalPos="144.87" arrivalSpeed="12.82" duration="56.00" routeLength="522.97" waitingTime="3.00" waitingCount="1" stopTime="0.00" timeLoss="14.80" rerouteNo="0" devices="tripinfo_62" vType="DEFAULT_VEHTYPE" speedFactor="0.95" vaporized=""/>
    <tripinfo id="66" depart="238.00" departLane="668307639#0_0" departPos="5.10" departSpeed="0.00" departDelay="0.40" arrival="280.00" arrivalLane="E1_1" arrivalPos="103.00" arrivalSpeed="12.12" duration="42.00" routeLength="411.03" waitingTime="2.00" waitingCount="1" stopTime="0.00" timeLoss="12.07" rerouteNo="0" devices="tripinfo_66" vType="DEFAULT_VEHTYPE" speedFactor="0.94" vaporized=""/>
    <tripinfo id="61" depart="220.00" departLane="668307639#0_0" departPos="5.10" departSpeed="0.00" departDelay="0.40" arrival="282.00" arrivalLane="668307633#3_1" arrivalPos="112.63" arrivalSpeed="16.83" duration="62.00" routeLength="625.14" waitingTime="10.00" waitingCount="1" stopTime="0.00" timeLoss="25.20" rerouteNo="0" devices="tripinfo_61" vType="DEFAULT_VEHTYPE" speedFactor="1.08" vaporized=""/>
    <tripinfo id="67" depart="242.00" departLane="-778823268#1_0" departPos="5.10" departSpeed="0.00" departDelay="0.80" arrival="283.00" arrivalLane="44499684#3_0" arrivalPos="84.04" arrivalSpeed="15.13" duration="41.00" routeLength="453.00" waitingTime="0.00" waitingCount="0" stopTime="0.00" timeLoss="8.26" rerouteNo="0" devices="tripinfo_67" vType="DEFAULT_VEHTYPE" speedFactor="0.98" vaporized=""/>
    <tripinfo id="72" depart="260.00" departLane="232079775#2_0" departPos="5.10" departSpeed="0.00" departDelay="0.80" arrival="291.00" arrivalLane="119238385#0_0" arrivalPos="144.87" arrivalSpeed="13.14" duration="31.00" routeLength="347.78" waitingTime="0.00" waitingCount="0" stopTime="0.00" timeLoss="5.78" rerouteNo="0" devices="tripinfo_72" vType="DEFAULT_VEHTYPE" speedFactor="1.01" vaporized=""/>
    <tripinfo id="70" depart="252.00" departLane="232079775#2_0" departPos="5.10" departSpeed="0.00" departDelay="0.00" arrival="295.00" arrivalLane="668307633#3_0" arrivalPos="112.63" arrivalSpeed="13.56" duration="43.00" routeLength="455.41" waitingTime="0.00" waitingCount="0" stopTime="0.00" timeLoss="8.06" rerouteNo="0" devices="tripinfo_70" vType="DEFAULT_VEHTYPE" speedFactor="0.89" vaporized=""/>
    <tripinfo id="76" depart="274.00" departLane="232079775#2_0" departPos="5.10" departSpeed="0.00" departDelay="0.40" arrival="312.00" arrivalLane="668307633#3_0" arrivalPos="112.63" arrivalSpeed="17.06" duration="38.00" routeLength="455.41" waitingTime="0.00" waitingCount="0" stopTime="0.00" timeLoss="8.62" rerouteNo="0" devices="tripinfo_76" vType="DEFAULT_VEHTYPE" speedFactor="1.06" vaporized=""/>
    <tripinfo id="69" depart="249.00" departLane="668307639#0_0" departPos="5.10" departSpeed="0.00" departDelay="0.60" arrival="318.00" arrivalLane="119238380#0_0" arrivalPos="135.86" arrivalSpeed="16.15" duration="69.00" routeLength="495.44" waitingTime="23.00" waitingCount="1" stopTime="0.00" timeLoss="40.08" rerouteNo="0" devices="tripinfo_69" vType="DEFAULT_VEHTYPE" speedFactor="1.17" vaporized=""/>
    <tripinfo id="78" depart="281.00" departLane="232079775#2_0" departPos="5.10" departSpeed="0.00" departDelay="0.20" arrival="322.00" arrivalLane="668307633#3_0" arrivalPos="112.63" arrivalSpeed="15.42" duration="41.00" routeLength="455.41" waitingTime="0.00" waitingCount="0" stopTime="0.00" timeLoss="9.39" rerouteNo="0" devices="tripinfo_78" vType="DEFAULT_VEHTYPE" speedFactor="0.96" vaporized=""/>
    <tripinfo id="81" depart="292.00" departLane="-778823268#1_0" departPos="5.10" departSpeed="0.00" departDelay="0.40" arrival="323.00" arrivalLane="E1_0" arrivalPos="103.00" arrivalSpeed="14.46" duration="31.00" routeLength="369.88" waitingTime="0.00" waitingCount="0" stopTime="0.00" timeLoss="4.94" rerouteNo="0" devices="tripinfo_81" vType="DEFAULT_VEHTYPE" speedFactor="1.06" vaporized=""/>
    <tripinfo id="74" depart="267.00" departLane="-778823268#1_0" departPos="5.10" departSpeed="0.00" departDelay="0.60" arrival="327.00" arrivalLane="119238385#0_0" arrivalPos="144.87" arrivalSpeed="14.04" duration="60.00" routeLength="522.97" waitingTime="10.00" waitingCount="1" stopTime="0.00" timeLoss="22.45" rerouteNo="0" devices="tripinfo_74" vType="DEFAULT_VEHTYPE" speedFactor="1.05" vaporized=""/>