<?xml version="1.0" encoding="UTF-8"?>

<!-- generated on 2024-09-02 16:12:48 by Eclipse SUMO sumo Version 1.20.0
<configuration xmlns:xsi="http://www.w3.org/2001/XMLSchema-instance" xsi:noNamespaceSchemaLocation="http://sumo.dlr.de/xsd/sumoConfiguration.xsd">

    <input>
        <net-file value="c:\self\School\Master\Disertation\code\RESCO\resco_benchmark\environments/unirii/osm.net.xml.gz"/>
        <route-files value="c:\self\School\Master\Disertation\code\RESCO\resco_benchmark\environments/unirii/osm.passenger.trips.xml"/>
        <additional-files value="c:\self\School\Master\Disertation\code\RESCO\resco_benchmark\environments/unirii/osm.poly.xml.gz"/>
    </input>

    <output>
        <tripinfo-output value="C:\self\School\Master\Disertation\code\RESCO\results\IPPO-tr0-unirii-0-drq_norm-wait_norm\tripinfo_11.xml"/>
        <tripinfo-output.write-unfinished value="true"/>
    </output>

    <processing>
        <ignore-route-errors value="true"/>
        <time-to-teleport value="-1"/>
    </processing>

    <routing>
        <device.rerouting.adaptation-steps value="18"/>
        <device.rerouting.adaptation-interval value="10"/>
    </routing>

    <report>
        <verbose value="true"/>
        <no-warnings value="True"/>
        <duration-log.statistics value="true"/>
        <no-step-log value="True"/>
    </report>

    <traci_server>
        <remote-port value="63915"/>
    </traci_server>

    <random_number>
        <random value="true"/>
    </random_number>

    <gui_only>
        <gui-settings-file value="c:\self\School\Master\Disertation\code\RESCO\resco_benchmark\environments/unirii/osm.view.xml"/>
    </gui_only>

</configuration>
-->

<tripinfos xmlns:xsi="http://www.w3.org/2001/XMLSchema-instance" xsi:noNamespaceSchemaLocation="http://sumo.dlr.de/xsd/tripinfo_file.xsd">
    <tripinfo id="10" depart="23.00" departLane="978867529_0" departPos="5.10" departSpeed="0.00" departDelay="1.82" arrival="54.00" arrivalLane="231177697#0_1" arrivalPos="74.44" arrivalSpeed="15.51" duration="31.00" routeLength="437.06" waitingTime="0.00" waitingCount="0" stopTime="0.00" timeLoss="5.51" rerouteNo="0" devices="tripinfo_10" vType="DEFAULT_VEHTYPE" speedFactor="1.15" vaporized=""/>
    <tripinfo id="15" depart="33.00" departLane="978867529_0" departPos="5.10" departSpeed="0.00" departDelay="1.24" arrival="67.00" arrivalLane="231177697#0_1" arrivalPos="74.44" arrivalSpeed="13.24" duration="34.00" routeLength="437.06" waitingTime="0.00" waitingCount="0" stopTime="0.00" timeLoss="5.25" rerouteNo="0" devices="tripinfo_15" vType="DEFAULT_VEHTYPE" speedFactor="0.99" vaporized=""/>
    <tripinfo id="3" depart="7.00" departLane="E8_0" departPos="5.10" departSpeed="0.00" departDelay="0.65" arrival="75.00" arrivalLane="-256961141#1_0" arrivalPos="204.72" arrivalSpeed="13.27" duration="68.00" routeLength="832.89" waitingTime="0.00" waitingCount="0" stopTime="0.00" timeLoss="8.13" rerouteNo="0" devices="tripinfo_3" vType="DEFAULT_VEHTYPE" speedFactor="1.02" vaporized=""/>
    <tripinfo id="6" depart="13.00" departLane="-218680176#1_0" departPos="5.10" departSpeed="0.00" departDelay="0.29" arrival="104.00" arrivalLane="153964138#0_2" arrivalPos="337.99" arrivalSpeed="16.42" duration="91.00" routeLength="462.27" waitingTime="51.00" waitingCount="1" stopTime="0.00" timeLoss="61.62" rerouteNo="0" devices="tripinfo_6" vType="DEFAULT_VEHTYPE" speedFactor="1.03" vaporized=""/>
    <tripinfo id="2" depart="5.00" departLane="666135205#0_0" departPos="5.10" departSpeed="0.00" departDelay="0.76" arrival="112.00" arrivalLane="231177697#0_0" arrivalPos="74.44" arrivalSpeed="12.35" duration="107.00" routeLength="649.17" waitingTime="44.00" waitingCount="2" stopTime="0.00" timeLoss="56.94" rerouteNo="0" devices="tripinfo_2" vType="DEFAULT_VEHTYPE" speedFactor="0.97" vaporized=""/>
    <tripinfo id="12" depart="26.00" departLane="E8_0" departPos="5.10" departSpeed="0.00" departDelay="0.59" arrival="121.00" arrivalLane="210831347#0_1" arrivalPos="149.88" arrivalSpeed="14.75" duration="95.00" routeLength="1367.17" waitingTime="0.00" waitingCount="0" stopTime="0.00" timeLoss="9.82" rerouteNo="0" devices="tripinfo_12" vType="DEFAULT_VEHTYPE" speedFactor="1.11" vaporized=""/>
    <tripinfo id="16" depart="34.00" departLane="256961141#0_0" departPos="5.10" departSpeed="0.00" departDelay="0.12" arrival="125.00" arrivalLane="450554042#0_0" arrivalPos="622.66" arrivalSpeed="15.25" duration="91.00" routeLength="853.74" waitingTime="21.00" waitingCount="1" stopTime="0.00" timeLoss="32.46" rerouteNo="0" devices="tripinfo_16" vType="DEFAULT_VEHTYPE" speedFactor="0.94" vaporized=""/>
    <tripinfo id="22" depart="47.00" departLane="-218680176#1_0" departPos="5.10" departSpeed="0.00" departDelay="0.41" arrival="126.00" arrivalLane="210831345#1_1" arrivalPos="264.29" arrivalSpeed="14.57" duration="79.00" routeLength="699.94" waitingTime="15.00" waitingCount="2" stopTime="0.00" timeLoss="33.11" rerouteNo="0" devices="tripinfo_22" vType="DEFAULT_VEHTYPE" speedFactor="1.13" vaporized=""/>
    <tripinfo id="1" depart="3.00" departLane="-231177697#2_0" departPos="5.10" departSpeed="0.00" departDelay="0.88" arrival="128.00" arrivalLane="210831345#1_1" arrivalPos="264.29" arrivalSpeed="14.90" duration="125.00" routeLength="696.92" waitingTime="63.00" waitingCount="1" stopTime="0.00" timeLoss="77.57" rerouteNo="0" devices="tripinfo_1" vType="DEFAULT_VEHTYPE" speedFactor="1.07" vaporized=""/>
    <tripinfo id="11" depart="24.00" departLane="-661251539_0" departPos="5.10" departSpeed="0.00" departDelay="0.71" arrival="130.00" arrivalLane="153964138#0_0" arrivalPos="337.99" arrivalSpeed="15.19" duration="106.00" routeLength="1239.04" waitingTime="0.00" waitingCount="0" stopTime="0.00" timeLoss="16.42" rerouteNo="0" devices="tripinfo_11" vType="DEFAULT_VEHTYPE" speedFactor="0.95" vaporized=""/>
    <tripinfo id="21" depart="45.00" departLane="-231177697#2_0" departPos="5.10" departSpeed="0.00" departDelay="0.53" arrival="133.00" arrivalLane="210831345#1_1" arrivalPos="264.29" arrivalSpeed="12.08" duration="88.00" routeLength="696.92" waitingTime="24.00" waitingCount="1" stopTime="0.00" timeLoss="34.68" rerouteNo="0" devices="tripinfo_21" vType="DEFAULT_VEHTYPE" speedFactor="0.96" vaporized=""/>
    <tripinfo id="34" depart="72.00" departLane="-231177697#2_0" departPos="5.10" departSpeed="0.00" departDelay="0.00" arrival="141.00" arrivalLane="210831345#1_1" arrivalPos="264.29" arrivalSpeed="12.33" duration="69.00" routeLength="696.92" waitingTime="0.00" waitingCount="0" stopTime="0.00" timeLoss="12.90" rerouteNo="0" devices="tripinfo_34" vType="DEFAULT_VEHTYPE" speedFactor="0.92" vaporized=""/>
    <tripinfo id="39" depart="83.00" departLane="-231177697#2_0" departPos="5.10" departSpeed="0.00" departDelay="0.41" arrival="141.00" arrivalLane="210831345#1_0" arrivalPos="264.29" arrivalSpeed="14.45" duration="58.00" routeLength="696.92" waitingTime="0.00" waitingCount="0" stopTime="0.00" timeLoss="10.95" rerouteNo="0" devices="tripinfo_39" vType="DEFAULT_VEHTYPE" speedFactor="1.08" vaporized=""/>
    <tripinfo id="25" depart="53.00" departLane="-661251539_0" departPos="5.10" departSpeed="0.00" departDelay="0.06" arrival="143.00" arrivalLane="153964138#0_0" arrivalPos="337.99" arrivalSpeed="16.75" duration="90.00" routeLength="1239.04" waitingTime="0.00" waitingCount="0" stopTime="0.00" timeLoss="8.82" rerouteNo="0" devices="tripinfo_25" vType="DEFAULT_VEHTYPE" speedFactor="1.05" vaporized=""/>
    <tripinfo id="30" depart="64.00" departLane="E8_0" departPos="5.10" departSpeed="0.00" departDelay="0.47" arrival="143.00" arrivalLane="226276377#0_1" arrivalPos="135.52" arrivalSpeed="12.82" duration="79.00" routeLength="784.51" waitingTime="8.00" waitingCount="1" stopTime="0.00" timeLoss="20.43" rerouteNo="0" devices="tripinfo_30" vType="DEFAULT_VEHTYPE" speedFactor="0.97" vaporized=""/>
    <tripinfo id="40" depart="85.00" departLane="65746828#0_0" departPos="5.10" departSpeed="0.00" departDelay="0.29" arrival="150.00" arrivalLane="210831345#1_0" arrivalPos="264.29" arrivalSpeed="11.74" duration="65.00" routeLength="446.75" waitingTime="20.00" waitingCount="1" stopTime="0.00" timeLoss="29.42" rerouteNo="0" devices="tripinfo_40" vType="DEFAULT_VEHTYPE" speedFactor="0.91" vaporized=""/>
    <tripinfo id="4" depart="9.00" departLane="-661251539_0" departPos="5.10" departSpeed="0.00" departDelay="0.53" arrival="153.00" arrivalLane="-256961141#1_0" arrivalPos="204.72" arrivalSpeed="10.55" duration="144.00" routeLength="872.91" waitingTime="54.00" waitingCount="1" stopTime="0.00" timeLoss="67.41" rerouteNo="0" devices="tripinfo_4" vType="DEFAULT_VEHTYPE" speedFactor="0.79" vaporized=""/>
    <tripinfo id="13" depart="28.00" departLane="-218680176#1_0" departPos="5.10" departSpeed="0.00" departDelay="0.47" arrival="155.00" arrivalLane="-256961141#1_0" arrivalPos="204.72" arrivalSpeed="12.92" duration="127.00" routeLength="1207.38" waitingTime="21.00" waitingCount="3" stopTime="0.00" timeLoss="46.14" rerouteNo="0" devices="tripinfo_13" vType="DEFAULT_VEHTYPE" speedFactor="1.01" vaporized=""/>
    <tripinfo id="0" depart="0.00" departLane="65746828#0_0" departPos="5.10" departSpeed="0.00" departDelay="0.00" arrival="156.00" arrivalLane="-256961141#1_0" arrivalPos="204.72" arrivalSpeed="9.91" duration="156.00" routeLength="931.50" waitingTime="59.00" waitingCount="2" stopTime="0.00" timeLoss="75.90" rerouteNo="0" devices="tripinfo_0" vType="DEFAULT_VEHTYPE" speedFactor="0.78" vaporized=""/>
    <tripinfo id="32" depart="68.00" departLane="978867529_0" departPos="5.10" departSpeed="0.00" departDelay="0.24" arrival="163.00" arrivalLane="231177697#0_1" arrivalPos="74.44" arrivalSpeed="14.75" duration="95.00" routeLength="437.06" waitingTime="57.00" waitingCount="1" stopTime="0.00" timeLoss="68.39" rerouteNo="0" devices="tripinfo_32" vType="DEFAULT_VEHTYPE" speedFactor="1.09" vaporized=""/>
    <tripinfo id="5" depart="11.00" departLane="-226276377#1_0" departPos="5.10" departSpeed="0.00" departDelay="0.41" arrival="168.00" arrivalLane="218680176#0_1" arrivalPos="98.94" arrivalSpeed="9.79" duration="157.00" routeLength="1158.55" waitingTime="36.00" waitingCount="1" stopTime="0.00" timeLoss="51.76" rerouteNo="0" devices="tripinfo_5" vType="DEFAULT_VEHTYPE" speedFactor="0.77" vaporized=""/>
    <tripinfo id="17" depart="36.00" departLane="-661251539_0" departPos="5.10" departSpeed="0.00" departDelay="0.00" arrival="170.00" arrivalLane="218680176#0_1" arrivalPos="98.94" arrivalSpeed="11.68" duration="134.00" routeLength="1001.21" waitingTime="33.00" waitingCount="2" stopTime="0.00" timeLoss="52.16" rerouteNo="0" devices="tripinfo_17" vType="DEFAULT_VEHTYPE" speedFactor="0.90" vaporized=""/>
    <tripinfo id="29" depart="63.00" departLane="-226276377#1_0" departPos="5.10" departSpeed="0.00" departDelay="1.59" arrival="171.00" arrivalLane="210831347#0_1" arrivalPos="149.88" arrivalSpeed="11.80" duration="108.00" routeLength="888.52" waitingTime="24.00" waitingCount="1" stopTime="0.00" timeLoss="40.14" rerouteNo="0" devices="tripinfo_29" vType="DEFAULT_VEHTYPE" speedFactor="0.90" vaporized=""/>
    <tripinfo id="7" depart="15.00" departLane="65746828#0_0" departPos="5.10" departSpeed="0.00" departDelay="0.18" arrival="172.00" arrivalLane="218680176#0_1" arrivalPos="98.94" arrivalSpeed="12.16" duration="157.00" routeLength="602.71" waitingTime="95.00" waitingCount="1" stopTime="0.00" timeLoss="107.35" rerouteNo="0" devices="tripinfo_7" vType="DEFAULT_VEHTYPE" speedFactor="0.90" vaporized=""/>
    <tripinfo id="36" depart="77.00" departLane="978867529_0" departPos="5.10" departSpeed="0.00" departDelay="0.76" arrival="179.00" arrivalLane="210831345#1_1" arrivalPos="264.29" arrivalSpeed="12.13" duration="102.00" routeLength="951.92" waitingTime="16.00" waitingCount="1" stopTime="0.00" timeLoss="33.60" rerouteNo="0" devices="tripinfo_36" vType="DEFAULT_VEHTYPE" speedFactor="0.96" vaporized=""/>
    <tripinfo id="20" depart="43.00" departLane="666135205#0_0" departPos="5.10" departSpeed="0.00" departDelay="0.65" arrival="185.00" arrivalLane="-256961141#1_1" arrivalPos="204.72" arrivalSpeed="13.76" duration="142.00" routeLength="1068.72" waitingTime="60.00" waitingCount="1" stopTime="0.00" timeLoss="71.45" rerouteNo="0" devices="tripinfo_20" vType="DEFAULT_VEHTYPE" speedFactor="1.02" vaporized=""/>
    <tripinfo id="35" depart="75.00" departLane="-226276377#1_0" departPos="5.10" departSpeed="0.00" departDelay="0.88" arrival="193.00" arrivalLane="450554042#0_0" arrivalPos="622.66" arrivalSpeed="14.70" duration="118.00" routeLength="763.53" waitingTime="55.00" waitingCount="1" stopTime="0.00" timeLoss="66.65" rerouteNo="0" devices="tripinfo_35" vType="DEFAULT_VEHTYPE" speedFactor="0.95" vaporized=""/>
    <tripinfo id="23" depart="50.00" departLane="-218680176#1_0" departPos="5.10" departSpeed="0.00" departDelay="1.29" arrival="219.00" arrivalLane="210831345#1_1" arrivalPos="264.29" arrivalSpeed="14.56" duration="169.00" routeLength="699.94" waitingTime="105.00" waitingCount="2" stopTime="0.00" timeLoss="120.57" rerouteNo="0" devices="tripinfo_23" vType="DEFAULT_VEHTYPE" speedFactor="1.06" vaporized=""/>
    <tripinfo id="50" depart="106.00" departLane="-218680176#1_0" departPos="5.10" departSpeed="0.00" departDelay="0.12" arrival="220.00" arrivalLane="231177697#0_0" arrivalPos="74.44" arrivalSpeed="12.75" duration="114.00" routeLength="205.97" waitingTime="80.00" waitingCount="2" stopTime="0.00" timeLoss="98.52" rerouteNo="0" devices="tripinfo_50" vType="DEFAULT_VEHTYPE" speedFactor="0.99" vaporized=""/>
    <tripinfo id="46" depart="98.00" departLane="978867529_0" departPos="5.10" departSpeed="0.00" departDelay="0.59" arrival="223.00" arrivalLane="210831347#0_0" arrivalPos="149.88" arrivalSpeed="13.14" duration="125.00" routeLength="812.56" waitingTime="53.00" waitingCount="1" stopTime="0.00" timeLoss="66.58" rerouteNo="0" devices="tripinfo_46" vType="DEFAULT_VEHTYPE" speedFactor="0.96" vaporized=""/>
    <tripinfo id="75" depart="159.00" departLane="E8_0" departPos="5.10" departSpeed="0.00" departDelay="0.18" arrival="224.00" arrivalLane="226276377#0_1" arrivalPos="135.52" arrivalSpeed="13.33" duration="65.00" routeLength="784.51" waitingTime="0.00" waitingCount="0" stopTime="0.00" timeLoss="6.78" rerouteNo="0" devices="tripinfo_75" vType="DEFAULT_VEHTYPE" speedFactor="0.98" vaporized=""/>
    <tripinfo id="68" depart="144.00" departLane="-218680176#1_0" departPos="5.10" departSpeed="0.00" departDelay="0.00" arrival="227.00" arrivalLane="231177697#0_0" arrivalPos="74.44" arrivalSpeed="12.82" duration="83.00" routeLength="205.97" waitingTime="47.00" waitingCount="2" stopTime="0.00" timeLoss="67.78" rerouteNo="0" devices="tripinfo_68" vType="DEFAULT_VEHTYPE" speedFactor="0.99" vaporized=""/>
    <tripinfo id="79" depart="168.00" departLane="-231177697#2_0" departPos="5.10" departSpeed="0.00" departDelay="0.71" arrival="227.00" arrivalLane="153964138#0_0" arrivalPos="337.99" arrivalSpeed="16.42" duration="59.00" routeLength="417.38" waitingTime="23.00" waitingCount="1" stopTime="0.00" timeLoss="32.92" rerouteNo="0" devices="tripinfo_79" vType="DEFAULT_VEHTYPE" speedFactor="1.02" vaporized=""/>
    <tripinfo id="51" depart="108.00" departLane="666135205#0_0" departPos="5.10" departSpeed="0.00" departDelay="0.00" arrival="239.00" arrivalLane="218680176#0_1" arrivalPos="98.94" arrivalSpeed="15.95" duration="131.00" routeLength="693.09" waitingTime="69.00" waitingCount="2" stopTime="0.00" timeLoss="87.52" rerouteNo="0" devices="tripinfo_51" vType="DEFAULT_VEHTYPE" speedFactor="1.18" vaporized=""/>
    <tripinfo id="60" depart="128.00" departLane="666135205#0_0" departPos="5.10" departSpeed="0.00" departDelay="0.94" arrival="243.00" arrivalLane="218680176#0_1" arrivalPos="98.94" arrivalSpeed="13.24" duration="115.00" routeLength="693.09" waitingTime="40.00" waitingCount="3" stopTime="0.00" timeLoss="61.33" rerouteNo="0" devices="tripinfo_60" vType="DEFAULT_VEHTYPE" speedFactor="0.96" vaporized=""/>
    <tripinfo id="70" depart="149.00" departLane="256961141#0_0" departPos="5.10" departSpeed="0.00" departDelay="0.76" arrival="252.00" arrivalLane="218680176#0_1" arrivalPos="98.94" arrivalSpeed="13.18" duration="103.00" routeLength="1207.47" waitingTime="2.00" waitingCount="1" stopTime="0.00" timeLoss="15.16" rerouteNo="0" devices="tripinfo_70" vType="DEFAULT_VEHTYPE" speedFactor="0.96" vaporized=""/>
    <tripinfo id="71" depart="151.00" departLane="-231177697#2_0" departPos="5.10" departSpeed="0.00" departDelay="0.65" arrival="253.00" arrivalLane="39907424_0" arrivalPos="316.44" arrivalSpeed="14.19" duration="102.00" routeLength="961.15" waitingTime="16.00" waitingCount="1" stopTime="0.00" timeLoss="35.49" rerouteNo="0" devices="tripinfo_71" vType="DEFAULT_VEHTYPE" speedFactor="1.03" vaporized=""/>
    <tripinfo id="86" depart="183.00" departLane="256961141#0_0" departPos="5.10" departSpeed="0.00" departDelay="0.88" arrival="274.00" arrivalLane="39907424_0" arrivalPos="316.44" arrivalSpeed="13.46" duration="91.00" routeLength="873.95" waitingTime="19.00" waitingCount="1" stopTime="0.00" timeLoss="32.74" rerouteNo="0" devices="tripinfo_86" vType="DEFAULT_VEHTYPE" speedFactor="1.05" vaporized=""/>
    <tripinfo id="117" depart="248.00" departLane="-231177697#2_0" departPos="5.10" departSpeed="0.00" departDelay="0.24" arrival="281.00" arrivalLane="153964138#0_0" arrivalPos="337.99" arrivalSpeed="17.22" duration="33.00" routeLength="417.38" waitingTime="0.00" waitingCount="0" stopTime="0.00" timeLoss="6.36" rerouteNo="0" devices="tripinfo_117" vType="DEFAULT_VEHTYPE" speedFactor="1.04" vaporized=""/>
    <tripinfo id="27" depart="58.00" departLane="65746828#0_0" departPos="5.10" departSpeed="0.00" departDelay="0.82" arrival="292.00" arrivalLane="226276377#0_0" arrivalPos="135.52" arrivalSpeed="13.05" duration="234.00" routeLength="841.69" waitingTime="164.00" waitingCount="1" stopTime="0.00" timeLoss="176.82" rerouteNo="0" devices="tripinfo_27" vType="DEFAULT_VEHTYPE" speedFactor="0.99" vaporized=""/>
    <tripinfo id="114" depart="242.00" departLane="-226276377#1_0" departPos="5.10" departSpeed="0.00" departDelay="0.59" arrival="296.00" arrivalLane="450554042#0_0" arrivalPos="622.66" arrivalSpeed="16.91" duration="54.00" routeLength="763.53" waitingTime="0.00" waitingCount="0" stopTime="0.00" timeLoss="7.30" rerouteNo="0" devices="tripinfo_114" vType="DEFAULT_VEHTYPE" speedFactor="1.03" vaporized=""/>
    <tripinfo id="78" depart="166.00" departLane="-661251539_0" departPos="5.10" departSpeed="0.00" departDelay="0.82" arrival="298.00" arrivalLane="226276377#0_0" arrivalPos="135.52" arrivalSpeed="10.55" duration="132.00" routeLength="783.10" waitingTime="44.00" waitingCount="1" stopTime="0.00" timeLoss="60.02" rerouteNo="0" devices="tripinfo_78" vType="DEFAULT_VEHTYPE" speedFactor="0.76" vaporized=""/>
    <tripinfo id="19" depart="42.00" departLane="978867529_0" departPos="5.10" departSpeed="0.00" departDelay="1.76" arrival="300.00" arrivalLane="226276377#0_0" arrivalPos="135.52" arrivalSpeed="12.11" duration="258.00" routeLength="1369.55" waitingTime="129.00" waitingCount="3" stopTime="0.00" timeLoss="159.02" rerouteNo="0" devices="tripinfo_19" vType="DEFAULT_VEHTYPE" speedFactor="0.91" vaporized=""/>
    <tripinfo id="91" depart="193.00" departLane="E8_0" departPos="5.10" departSpeed="0.00" departDelay="0.29" arrival="301.00" arrivalLane="-256961141#1_0" arrivalPos="204.72" arrivalSpeed="14.25" duration="108.00" routeLength="832.89" waitingTime="38.00" waitingCount="1" stopTime="0.00" timeLoss="50.76" rerouteNo="0" devices="tripinfo_91" vType="DEFAULT_VEHTYPE" speedFactor="1.07" vaporized=""/>
    <tripinfo id="18" depart="39.00" departLane="978867529_0" departPos="5.10" departSpeed="0.00" departDelay="0.88" arrival="302.00" arrivalLane="226276377#0_0" arrivalPos="135.52" arrivalSpeed="13.63" duration="263.00" routeLength="1369.55" waitingTime="132.00" waitingCount="4" stopTime="0.00" timeLoss="176.84" rerouteNo="0" devices="tripinfo_18" vType="DEFAULT_VEHTYPE" speedFactor="1.05" vaporized=""/>
    <tripinfo id="14" depart="30.00" departLane="978867529_0" departPos="5.10" departSpeed="0.00" departDelay="0.35" arrival="304.00" arrivalLane="226276377#0_0" arrivalPos="135.52" arrivalSpeed="11.19" duration="274.00" routeLength="1369.55" waitingTime="136.00" waitingCount="3" stopTime="0.00" timeLoss="171.85" rerouteNo="0" devices="tripinfo_14" vType="DEFAULT_VEHTYPE" speedFactor="0.88" vaporized=""/>
    <tripinfo id="52" depart="111.00" departLane="-231177697#2_0" departPos="5.10" departSpeed="0.00" departDelay="0.88" arrival="306.00" arrivalLane="226276377#0_0" arrivalPos="135.52" arrivalSpeed="13.47" duration="195.00" routeLength="1114.55" waitingTime="85.00" waitingCount="3" stopTime="0.00" timeLoss="122.62" rerouteNo="0" devices="tripinfo_52" vType="DEFAULT_VEHTYPE" speedFactor="1.04" vaporized=""/>
    <tripinfo id="58" depart="123.00" departLane="-231177697#2_0" departPos="5.10" departSpeed="0.00" departDelay="0.18" arrival="308.00" arrivalLane="226276377#0_0" arrivalPos="135.52" arrivalSpeed="14.78" duration="185.00" routeLength="1114.55" waitingTime="75.00" waitingCount="2" stopTime="0.00" timeLoss="116.77" rerouteNo="0" devices="tripinfo_58" vType="DEFAULT_VEHTYPE" speedFactor="1.11" vaporized=""/>
    <tripinfo id="113" depart="240.00" departLane="256961141#0_0" departPos="5.10" departSpeed="0.00" departDelay="0.71" arrival="310.00" arrivalLane="39907424_0" arrivalPos="316.44" arrivalSpeed="13.77" duration="70.00" routeLength="873.95" waitingTime="0.00" waitingCount="0" stopTime="0.00" timeLoss="10.77" rerouteNo="0" devices="tripinfo_113" vType="DEFAULT_VEHTYPE" speedFactor="1.01" vaporized=""/>
    <tripinfo id="26" depart="56.00" departLane="-231177697#2_0" departPos="5.10" departSpeed="0.00" departDelay="0.94" arrival="321.00" arrivalLane="450554042#0_0" arrivalPos="622.66" arrivalSpeed="16.16" duration="265.00" routeLength="1613.58" waitingTime="139.00" waitingCount="3" stopTime="0.00" timeLoss="162.74" rerouteNo="0" devices="tripinfo_26" vType="DEFAULT_VEHTYPE" speedFactor="1.01" vaporized=""/>
    <tripinfo id="57" depart="121.00" departLane="E8_0" departPos="5.10" departSpeed="0.00" departDelay="0.29" arrival="321.00" arrivalLane="39907424_0" arrivalPos="316.44" arrivalSpeed="16.49" duration="200.00" routeLength="1303.68" waitingTime="112.00" waitingCount="1" stopTime="0.00" timeLoss="129.14" rerouteNo="0" devices="tripinfo_57" vType="DEFAULT_VEHTYPE" speedFactor="1.28" vaporized=""/>
    <tripinfo id="81" depart="172.00" departLane="-231177697#2_0" departPos="5.10" departSpeed="0.00" departDelay="0.47" arrival="323.00" arrivalLane="450554042#0_0" arrivalPos="622.66" arrivalSpeed="16.34" duration="151.00" routeLength="1613.58" waitingTime="23.00" waitingCount="1" stopTime="0.00" timeLoss="50.32" rerouteNo="0" devices="tripinfo_81" vType="DEFAULT_VEHTYPE" speedFactor="1.02" vaporized=""/>
    <tripinfo id="41" depart="88.00" departLane="65746828#0_0" departPos="5.10" departSpeed="0.00" departDelay="1.18" arrival="325.00" arrivalLane="450554042#0_0" arrivalPos="622.66" arrivalSpeed="15.14" duration="237.00" routeLength="1340.72" waitingTime="122.00" waitingCount="3" stopTime="0.00" timeLoss="145.11" rerouteNo="0" devices="tripinfo_41" vType="DEFAULT_VEHTYPE" speedFactor="0.91" vaporized=""/>
    <tripinfo id="104" depart="222.00" departLane="-661251539_0" departPos="5.10" departSpeed="0.00" departDelay="1.76" arrival="328.00" arrivalLane="450554042#0_0" arrivalPos="622.66" arrivalSpeed="14.18" duration="106.00" routeLength="1282.13" waitingTime="0.00" waitingCount="0" stopTime="0.00" timeLoss="13.84" rerouteNo="0" devices="tripinfo_104" vType="DEFAULT_VEHTYPE" speedFactor="0.90" vaporized=""/>
    <tripinfo id="145" depart="308.00" departLane="-218680176#1_0" departPos="5.10" departSpeed="0.00" departDelay="0.94" arrival="328.00" arrivalLane="231177697#0_0" arrivalPos="74.44" arrivalSpeed="12.19" duration="20.00" routeLength="205.97" waitingTime="0.00" waitingCount="0" stopTime="0.00" timeLoss="3.57" rerouteNo="0" devices="tripinfo_145" vType="DEFAULT_VEHTYPE" speedFactor="0.94" vaporized=""/>
    <tripinfo id="141" depart="299.00" departLane="65746828#0_0" departPos="5.10" departSpeed="0.00" departDelay="0.41" arrival="337.00" arrivalLane="210831345#1_0" arrivalPos="264.29" arrivalSpeed="12.63" duration="38.00" routeLength="446.75" waitingTime="0.00" waitingCount="0" stopTime="0.00" timeLoss="5.27" rerouteNo="0" devices="tripinfo_141" vType="DEFAULT_VEHTYPE" speedFactor="0.99" vaporized=""/>
    <tripinfo id="31" depart="66.00" departLane="65746828#0_0" departPos="5.10" departSpeed="0.00" departDelay="0.35" arrival="338.00" arrivalLane="231177697#0_0" arrivalPos="74.44" arrivalSpeed="10.75" duration="272.00" routeLength="558.79" waitingTime="210.00" waitingCount="2" stopTime="0.00" timeLoss="223.79" rerouteNo="0" devices="tripinfo_31" vType="DEFAULT_VEHTYPE" speedFactor="0.86" vaporized=""/>
    <tripinfo id="28" depart="60.00" departLane="-226276377#1_0" departPos="5.10" departSpeed="0.00" departDelay="0.71" arrival="339.00" arrivalLane="231177697#0_0" arrivalPos="74.44" arrivalSpeed="14.48" duration="279.00" routeLength="1114.63" waitingTime="186.00" waitingCount="3" stopTime="0.00" timeLoss="212.10" rerouteNo="0" devices="tripinfo_28" vType="DEFAULT_VEHTYPE" speedFactor="1.16" vaporized=""/>
    <tripinfo id="61" depart="130.00" departLane="978867529_0" departPos="5.10" departSpeed="0.00" departDelay="0.82" arrival="339.00" arrivalLane="218680176#0_0" arrivalPos="98.94" arrivalSpeed="13.80" duration="209.00" routeLength="442.15" waitingTime="169.00" waitingCount="1" stopTime="0.00" timeLoss="180.09" rerouteNo="0" devices="tripinfo_61" vType="DEFAULT_VEHTYPE" speedFactor="1.03" vaporized=""/>
    <tripinfo id="49" depart="105.00" departLane="E8_0" departPos="5.10" departSpeed="0.00" departDelay="1.24" arrival="340.00" arrivalLane="39907424_0" arrivalPos="316.44" arrivalSpeed="11.38" duration="235.00" routeLength="1303.68" waitingTime="113.00" waitingCount="1" stopTime="0.00" timeLoss="128.37" rerouteNo="0" devices="tripinfo_49" vType="DEFAULT_VEHTYPE" speedFactor="0.85" vaporized=""/>
    <tripinfo id="99" depart="210.00" departLane="E8_0" departPos="5.10" departSpeed="0.00" departDelay="0.35" arrival="341.00" arrivalLane="39907424_0" arrivalPos="316.44" arrivalSpeed="13.33" duration="131.00" routeLength="1303.68" waitingTime="18.00" waitingCount="1" stopTime="0.00" timeLoss="43.01" rerouteNo="0" devices="tripinfo_99" vType="DEFAULT_VEHTYPE" speedFactor="1.03" vaporized=""/>
    <tripinfo id="120" depart="255.00" departLane="-661251539_0" departPos="5.10" departSpeed="0.00" departDelay="0.88" arrival="341.00" arrivalLane="226276377#0_0" arrivalPos="135.52" arrivalSpeed="13.40" duration="86.00" routeLength="783.10" waitingTime="20.00" waitingCount="1" stopTime="0.00" timeLoss="33.19" rerouteNo="0" devices="tripinfo_120" vType="DEFAULT_VEHTYPE" speedFactor="1.02" vaporized=""/>
    <tripinfo id="73" depart="155.00" departLane="256961141#0_0" departPos="5.10" departSpeed="0.00" departDelay="0.41" arrival="344.00" arrivalLane="231177697#0_0" arrivalPos="74.44" arrivalSpeed="13.97" duration="189.00" routeLength="1163.55" waitingTime="88.00" waitingCount="1" stopTime="0.00" timeLoss="109.65" rerouteNo="0" devices="tripinfo_73" vType="DEFAULT_VEHTYPE" speedFactor="1.03" vaporized=""/>
    <tripinfo id="146" depart="310.00" departLane="65746828#0_0" departPos="5.10" departSpeed="0.00" departDelay="0.82" arrival="345.00" arrivalLane="210831345#1_0" arrivalPos="264.29" arrivalSpeed="14.75" duration="35.00" routeLength="446.75" waitingTime="0.00" waitingCount="0" stopTime="0.00" timeLoss="4.56" rerouteNo="0" devices="tripinfo_146" vType="DEFAULT_VEHTYPE" speedFactor="1.06" vaporized=""/>
    <tripinfo id="54" depart="115.00" departLane="256961141#0_0" departPos="5.10" departSpeed="0.00" departDelay="0.65" arrival="347.00" arrivalLane="450554042#0_0" arrivalPos="622.66" arrivalSpeed="16.33" duration="232.00" routeLength="853.74" waitingTime="165.00" waitingCount="1" stopTime="0.00" timeLoss="177.40" rerouteNo="0" devices="tripinfo_54" vType="DEFAULT_VEHTYPE" speedFactor="1.00" vaporized=""/>
    <tripinfo id="90" depart="191.00" departLane="666135205#0_0" departPos="5.10" departSpeed="0.00" departDelay="0.41" arrival="347.00" arrivalLane="231177697#0_0" arrivalPos="74.44" arrivalSpeed="14.90" duration="156.00" routeLength="649.17" waitingTime="90.00" waitingCount="2" stopTime="0.00" timeLoss="110.43" rerouteNo="0" devices="tripinfo_90" vType="DEFAULT_VEHTYPE" speedFactor="1.08" vaporized=""/>
    <tripinfo id="108" depart="229.00" departLane="65746828#0_0" departPos="5.10" departSpeed="0.00" departDelay="0.29" arrival="348.00" arrivalLane="231177697#0_0" arrivalPos="74.44" arrivalSpeed="17.33" duration="119.00" routeLength="558.79" waitingTime="62.00" waitingCount="2" stopTime="0.00" timeLoss="86.36" rerouteNo="0" devices="tripinfo_108" vType="DEFAULT_VEHTYPE" speedFactor="1.26" vaporized=""/>
    <tripinfo id="56" depart="119.00" departLane="256961141#0_0" departPos="5.10" departSpeed="0.00" departDelay="0.41" arrival="350.00" arrivalLane="153964138#0_2" arrivalPos="337.99" arrivalSpeed="20.14" duration="231.00" routeLength="1439.25" waitingTime="122.00" waitingCount="3" stopTime="0.00" timeLoss="153.64" rerouteNo="0" devices="tripinfo_56" vType="DEFAULT_VEHTYPE" speedFactor="1.26" vaporized=""/>
    <tripinfo id="116" depart="246.00" departLane="65746828#0_0" departPos="5.10" departSpeed="0.00" departDelay="0.35" arrival="353.00" arrivalLane="231177697#0_0" arrivalPos="74.44" arrivalSpeed="10.90" duration="107.00" routeLength="558.79" waitingTime="43.00" waitingCount="1" stopTime="0.00" timeLoss="56.30" rerouteNo="0" devices="tripinfo_116" vType="DEFAULT_VEHTYPE" speedFactor="0.83" vaporized=""/>