<?xml version="1.0" encoding="UTF-8"?>

<!-- generated on 2024-09-02 16:14:47 by Eclipse SUMO sumo Version 1.20.0
<configuration xmlns:xsi="http://www.w3.org/2001/XMLSchema-instance" xsi:noNamespaceSchemaLocation="http://sumo.dlr.de/xsd/sumoConfiguration.xsd">

    <input>
        <net-file value="c:\self\School\Master\Disertation\code\RESCO\resco_benchmark\environments/unirii/osm.net.xml.gz"/>
        <route-files value="c:\self\School\Master\Disertation\code\RESCO\resco_benchmark\environments/unirii/osm.passenger.trips.xml"/>
        <additional-files value="c:\self\School\Master\Disertation\code\RESCO\resco_benchmark\environments/unirii/osm.poly.xml.gz"/>
    </input>

    <output>
        <tripinfo-output value="C:\self\School\Master\Disertation\code\RESCO\results\IPPO-tr0-unirii-0-drq_norm-wait_norm\tripinfo_29.xml"/>
        <tripinfo-output.write-unfinished value="true"/>
    </output>

    <processing>
        <ignore-route-errors value="true"/>
        <time-to-teleport value="-1"/>
    </processing>

    <routing>
        <device.rerouting.adaptation-steps value="18"/>
        <device.rerouting.adaptation-interval value="10"/>
    </routing>

    <report>
        <verbose value="true"/>
        <no-warnings value="True"/>
        <duration-log.statistics value="true"/>
        <no-step-log value="True"/>
    </report>

    <traci_server>
        <remote-port value="64010"/>
    </traci_server>

    <random_number>
        <random value="true"/>
    </random_number>

    <gui_only>
        <gui-settings-file value="c:\self\School\Master\Disertation\code\RESCO\resco_benchmark\environments/unirii/osm.view.xml"/>
    </gui_only>

</configuration>
-->

<tripinfos xmlns:xsi="http://www.w3.org/2001/XMLSchema-instance" xsi:noNamespaceSchemaLocation="http://sumo.dlr.de/xsd/tripinfo_file.xsd">
    <tripinfo id="6" depart="13.00" departLane="-218680176#1_0" departPos="5.10" departSpeed="0.00" departDelay="0.29" arrival="54.00" arrivalLane="153964138#0_2" arrivalPos="337.99" arrivalSpeed="15.99" duration="41.00" routeLength="462.27" waitingTime="1.00" waitingCount="1" stopTime="0.00" timeLoss="11.39" rerouteNo="0" devices="tripinfo_6" vType="DEFAULT_VEHTYPE" speedFactor="1.00" vaporized=""/>
    <tripinfo id="1" depart="3.00" departLane="-231177697#2_0" departPos="5.10" departSpeed="0.00" departDelay="0.88" arrival="79.00" arrivalLane="210831345#1_1" arrivalPos="264.29" arrivalSpeed="12.99" duration="76.00" routeLength="696.92" waitingTime="14.00" waitingCount="1" stopTime="0.00" timeLoss="24.58" rerouteNo="0" devices="tripinfo_1" vType="DEFAULT_VEHTYPE" speedFactor="1.01" vaporized=""/>
    <tripinfo id="3" depart="7.00" departLane="E8_0" departPos="5.10" departSpeed="0.00" departDelay="0.65" arrival="97.00" arrivalLane="-256961141#1_0" arrivalPos="204.72" arrivalSpeed="12.92" duration="90.00" routeLength="832.89" waitingTime="17.00" waitingCount="1" stopTime="0.00" timeLoss="29.06" rerouteNo="0" devices="tripinfo_3" vType="DEFAULT_VEHTYPE" speedFactor="0.99" vaporized=""/>
    <tripinfo id="21" depart="45.00" departLane="-231177697#2_0" departPos="5.10" departSpeed="0.00" departDelay="0.53" arrival="104.00" arrivalLane="210831345#1_1" arrivalPos="264.29" arrivalSpeed="13.40" duration="59.00" routeLength="696.92" waitingTime="0.00" waitingCount="0" stopTime="0.00" timeLoss="5.95" rerouteNo="0" devices="tripinfo_21" vType="DEFAULT_VEHTYPE" speedFactor="0.98" vaporized=""/>
    <tripinfo id="2" depart="5.00" departLane="666135205#0_0" departPos="5.10" departSpeed="0.00" departDelay="0.76" arrival="112.00" arrivalLane="231177697#0_0" arrivalPos="74.44" arrivalSpeed="14.59" duration="107.00" routeLength="649.17" waitingTime="49.00" waitingCount="1" stopTime="0.00" timeLoss="63.48" rerouteNo="0" devices="tripinfo_2" vType="DEFAULT_VEHTYPE" speedFactor="1.12" vaporized=""/>
    <tripinfo id="40" depart="85.00" departLane="65746828#0_0" departPos="5.10" departSpeed="0.00" departDelay="0.29" arrival="156.00" arrivalLane="210831345#1_0" arrivalPos="264.29" arrivalSpeed="12.03" duration="71.00" routeLength="446.75" waitingTime="25.00" waitingCount="1" stopTime="0.00" timeLoss="34.73" rerouteNo="0" devices="tripinfo_40" vType="DEFAULT_VEHTYPE" speedFactor="0.91" vaporized=""/>
    <tripinfo id="16" depart="34.00" departLane="256961141#0_0" departPos="5.10" departSpeed="0.00" departDelay="0.12" arrival="159.00" arrivalLane="450554042#0_0" arrivalPos="622.66" arrivalSpeed="12.20" duration="125.00" routeLength="853.74" waitingTime="43.00" waitingCount="1" stopTime="0.00" timeLoss="55.13" rerouteNo="0" devices="tripinfo_16" vType="DEFAULT_VEHTYPE" speedFactor="0.78" vaporized=""/>
    <tripinfo id="12" depart="26.00" departLane="E8_0" departPos="5.10" departSpeed="0.00" departDelay="0.59" arrival="169.00" arrivalLane="210831347#0_1" arrivalPos="149.88" arrivalSpeed="14.42" duration="143.00" routeLength="1367.17" waitingTime="31.00" waitingCount="1" stopTime="0.00" timeLoss="51.86" rerouteNo="0" devices="tripinfo_12" vType="DEFAULT_VEHTYPE" speedFactor="1.04" vaporized=""/>
    <tripinfo id="27" depart="58.00" departLane="65746828#0_0" departPos="5.10" departSpeed="0.00" departDelay="0.82" arrival="170.00" arrivalLane="226276377#0_0" arrivalPos="135.52" arrivalSpeed="10.21" duration="112.00" routeLength="841.69" waitingTime="28.00" waitingCount="1" stopTime="0.00" timeLoss="41.30" rerouteNo="0" devices="tripinfo_27" vType="DEFAULT_VEHTYPE" speedFactor="0.80" vaporized=""/>
    <tripinfo id="29" depart="63.00" departLane="-226276377#1_0" departPos="5.10" departSpeed="0.00" departDelay="1.59" arrival="171.00" arrivalLane="210831347#0_1" arrivalPos="149.88" arrivalSpeed="13.85" duration="108.00" routeLength="888.52" waitingTime="28.00" waitingCount="2" stopTime="0.00" timeLoss="48.00" rerouteNo="0" devices="tripinfo_29" vType="DEFAULT_VEHTYPE" speedFactor="1.02" vaporized=""/>
    <tripinfo id="35" depart="75.00" departLane="-226276377#1_0" departPos="5.10" departSpeed="0.00" departDelay="0.88" arrival="175.00" arrivalLane="450554042#0_0" arrivalPos="622.66" arrivalSpeed="14.30" duration="100.00" routeLength="763.53" waitingTime="36.00" waitingCount="1" stopTime="0.00" timeLoss="46.41" rerouteNo="0" devices="tripinfo_35" vType="DEFAULT_VEHTYPE" speedFactor="0.90" vaporized=""/>
    <tripinfo id="34" depart="72.00" departLane="-231177697#2_0" departPos="5.10" departSpeed="0.00" departDelay="0.00" arrival="178.00" arrivalLane="210831345#1_1" arrivalPos="264.29" arrivalSpeed="13.38" duration="106.00" routeLength="696.92" waitingTime="41.00" waitingCount="1" stopTime="0.00" timeLoss="54.68" rerouteNo="0" devices="tripinfo_34" vType="DEFAULT_VEHTYPE" speedFactor="1.00" vaporized=""/>
    <tripinfo id="39" depart="83.00" departLane="-231177697#2_0" departPos="5.10" departSpeed="0.00" departDelay="0.41" arrival="180.00" arrivalLane="210831345#1_1" arrivalPos="264.29" arrivalSpeed="14.58" duration="97.00" routeLength="696.92" waitingTime="36.00" waitingCount="1" stopTime="0.00" timeLoss="50.97" rerouteNo="0" devices="tripinfo_39" vType="DEFAULT_VEHTYPE" speedFactor="1.12" vaporized=""/>
    <tripinfo id="36" depart="77.00" departLane="978867529_0" departPos="5.10" departSpeed="0.00" departDelay="0.76" arrival="186.00" arrivalLane="210831345#1_0" arrivalPos="264.29" arrivalSpeed="10.64" duration="109.00" routeLength="951.92" waitingTime="18.00" waitingCount="1" stopTime="0.00" timeLoss="32.20" rerouteNo="0" devices="tripinfo_36" vType="DEFAULT_VEHTYPE" speedFactor="0.85" vaporized=""/>
    <tripinfo id="61" depart="130.00" departLane="978867529_0" departPos="5.10" departSpeed="0.00" departDelay="0.82" arrival="188.00" arrivalLane="218680176#0_0" arrivalPos="98.94" arrivalSpeed="13.57" duration="58.00" routeLength="442.15" waitingTime="18.00" waitingCount="1" stopTime="0.00" timeLoss="29.75" rerouteNo="0" devices="tripinfo_61" vType="DEFAULT_VEHTYPE" speedFactor="1.03" vaporized=""/>
    <tripinfo id="26" depart="56.00" departLane="-231177697#2_0" departPos="5.10" departSpeed="0.00" departDelay="0.94" arrival="196.00" arrivalLane="450554042#0_0" arrivalPos="622.66" arrivalSpeed="16.34" duration="140.00" routeLength="1613.58" waitingTime="17.00" waitingCount="2" stopTime="0.00" timeLoss="38.35" rerouteNo="0" devices="tripinfo_26" vType="DEFAULT_VEHTYPE" speedFactor="1.02" vaporized=""/>
    <tripinfo id="11" depart="24.00" departLane="-661251539_0" departPos="5.10" departSpeed="0.00" departDelay="0.71" arrival="202.00" arrivalLane="153964138#0_0" arrivalPos="337.99" arrivalSpeed="17.80" duration="178.00" routeLength="1239.04" waitingTime="77.00" waitingCount="2" stopTime="0.00" timeLoss="101.17" rerouteNo="0" devices="tripinfo_11" vType="DEFAULT_VEHTYPE" speedFactor="1.11" vaporized=""/>
    <tripinfo id="25" depart="53.00" departLane="-661251539_0" departPos="5.10" departSpeed="0.00" departDelay="0.06" arrival="204.00" arrivalLane="153964138#0_0" arrivalPos="337.99" arrivalSpeed="15.18" duration="151.00" routeLength="1239.04" waitingTime="43.00" waitingCount="2" stopTime="0.00" timeLoss="63.77" rerouteNo="0" devices="tripinfo_25" vType="DEFAULT_VEHTYPE" speedFactor="0.98" vaporized=""/>
    <tripinfo id="49" depart="105.00" departLane="E8_0" departPos="5.10" departSpeed="0.00" departDelay="1.24" arrival="206.00" arrivalLane="39907424_0" arrivalPos="316.44" arrivalSpeed="13.10" duration="101.00" routeLength="1303.68" waitingTime="0.00" waitingCount="0" stopTime="0.00" timeLoss="11.43" rerouteNo="0" devices="tripinfo_49" vType="DEFAULT_VEHTYPE" speedFactor="1.01" vaporized=""/>
    <tripinfo id="10" depart="23.00" departLane="978867529_0" departPos="5.10" departSpeed="0.00" departDelay="1.82" arrival="213.00" arrivalLane="231177697#0_1" arrivalPos="74.44" arrivalSpeed="13.72" duration="190.00" routeLength="437.06" waitingTime="152.00" waitingCount="1" stopTime="0.00" timeLoss="162.22" rerouteNo="0" devices="tripinfo_10" vType="DEFAULT_VEHTYPE" speedFactor="1.03" vaporized=""/>
    <tripinfo id="41" depart="88.00" departLane="65746828#0_0" departPos="5.10" departSpeed="0.00" departDelay="1.18" arrival="213.00" arrivalLane="450554042#0_0" arrivalPos="622.66" arrivalSpeed="15.67" duration="125.00" routeLength="1340.72" waitingTime="23.00" waitingCount="1" stopTime="0.00" timeLoss="37.14" rerouteNo="0" devices="tripinfo_41" vType="DEFAULT_VEHTYPE" speedFactor="0.95" vaporized=""/>
    <tripinfo id="17" depart="36.00" departLane="-661251539_0" departPos="5.10" departSpeed="0.00" departDelay="0.00" arrival="215.00" arrivalLane="218680176#0_1" arrivalPos="98.94" arrivalSpeed="12.18" duration="179.00" routeLength="1001.21" waitingTime="81.00" waitingCount="2" stopTime="0.00" timeLoss="100.99" rerouteNo="0" devices="tripinfo_17" vType="DEFAULT_VEHTYPE" speedFactor="0.94" vaporized=""/>
    <tripinfo id="15" depart="33.00" departLane="978867529_0" departPos="5.10" departSpeed="0.00" departDelay="1.24" arrival="216.00" arrivalLane="231177697#0_1" arrivalPos="74.44" arrivalSpeed="12.20" duration="183.00" routeLength="437.06" waitingTime="141.00" waitingCount="1" stopTime="0.00" timeLoss="151.08" rerouteNo="0" devices="tripinfo_15" vType="DEFAULT_VEHTYPE" speedFactor="0.90" vaporized=""/>
    <tripinfo id="32" depart="68.00" departLane="978867529_0" departPos="5.10" departSpeed="0.00" departDelay="0.24" arrival="218.00" arrivalLane="231177697#0_1" arrivalPos="74.44" arrivalSpeed="13.10" duration="150.00" routeLength="437.06" waitingTime="110.00" waitingCount="1" stopTime="0.00" timeLoss="120.87" rerouteNo="0" devices="tripinfo_32" vType="DEFAULT_VEHTYPE" speedFactor="1.00" vaporized=""/>
    <tripinfo id="51" depart="108.00" departLane="666135205#0_0" departPos="5.10" departSpeed="0.00" departDelay="0.00" arrival="218.00" arrivalLane="218680176#0_1" arrivalPos="98.94" arrivalSpeed="11.43" duration="110.00" routeLength="693.09" waitingTime="39.00" waitingCount="1" stopTime="0.00" timeLoss="52.87" rerouteNo="0" devices="tripinfo_51" vType="DEFAULT_VEHTYPE" speedFactor="0.90" vaporized=""/>
    <tripinfo id="46" depart="98.00" departLane="978867529_0" departPos="5.10" departSpeed="0.00" departDelay="0.59" arrival="220.00" arrivalLane="210831347#0_0" arrivalPos="149.88" arrivalSpeed="13.32" duration="122.00" routeLength="812.56" waitingTime="53.00" waitingCount="1" stopTime="0.00" timeLoss="66.43" rerouteNo="0" devices="tripinfo_46" vType="DEFAULT_VEHTYPE" speedFactor="1.00" vaporized=""/>
    <tripinfo id="60" depart="128.00" departLane="666135205#0_0" departPos="5.10" departSpeed="0.00" departDelay="0.94" arrival="222.00" arrivalLane="218680176#0_1" arrivalPos="98.94" arrivalSpeed="10.18" duration="94.00" routeLength="693.09" waitingTime="12.00" waitingCount="1" stopTime="0.00" timeLoss="26.60" rerouteNo="0" devices="tripinfo_60" vType="DEFAULT_VEHTYPE" speedFactor="0.76" vaporized=""/>
    <tripinfo id="5" depart="11.00" departLane="-226276377#1_0" departPos="5.10" departSpeed="0.00" departDelay="0.41" arrival="238.00" arrivalLane="218680176#0_1" arrivalPos="98.94" arrivalSpeed="14.06" duration="227.00" routeLength="1158.55" waitingTime="131.00" waitingCount="2" stopTime="0.00" timeLoss="150.86" rerouteNo="0" devices="tripinfo_5" vType="DEFAULT_VEHTYPE" speedFactor="1.06" vaporized=""/>
    <tripinfo id="43" depart="92.00" departLane="E8_0" departPos="5.10" departSpeed="0.00" departDelay="0.94" arrival="240.00" arrivalLane="218680176#0_1" arrivalPos="98.94" arrivalSpeed="14.20" duration="148.00" routeLength="1637.20" waitingTime="22.00" waitingCount="2" stopTime="0.00" timeLoss="44.62" rerouteNo="0" devices="tripinfo_43" vType="DEFAULT_VEHTYPE" speedFactor="1.11" vaporized=""/>
    <tripinfo id="79" depart="168.00" departLane="-231177697#2_0" departPos="5.10" departSpeed="0.00" departDelay="0.71" arrival="248.00" arrivalLane="153964138#0_0" arrivalPos="337.99" arrivalSpeed="15.79" duration="80.00" routeLength="417.38" waitingTime="44.00" waitingCount="1" stopTime="0.00" timeLoss="53.17" rerouteNo="0" devices="tripinfo_79" vType="DEFAULT_VEHTYPE" speedFactor="1.01" vaporized=""/>
    <tripinfo id="78" depart="166.00" departLane="-661251539_0" departPos="5.10" departSpeed="0.00" departDelay="0.82" arrival="249.00" arrivalLane="226276377#0_0" arrivalPos="135.52" arrivalSpeed="13.10" duration="83.00" routeLength="783.10" waitingTime="12.00" waitingCount="1" stopTime="0.00" timeLoss="27.99" rerouteNo="0" devices="tripinfo_78" vType="DEFAULT_VEHTYPE" speedFactor="0.99" vaporized=""/>
    <tripinfo id="38" depart="81.00" departLane="E8_0" departPos="5.10" departSpeed="0.00" departDelay="0.53" arrival="250.00" arrivalLane="218680176#0_1" arrivalPos="98.94" arrivalSpeed="11.36" duration="169.00" routeLength="1637.20" waitingTime="12.00" waitingCount="2" stopTime="0.00" timeLoss="34.10" rerouteNo="0" devices="tripinfo_38" vType="DEFAULT_VEHTYPE" speedFactor="0.85" vaporized=""/>
    <tripinfo id="48" depart="102.00" departLane="E8_0" departPos="5.10" departSpeed="0.00" departDelay="0.35" arrival="253.00" arrivalLane="218680176#0_1" arrivalPos="98.94" arrivalSpeed="11.08" duration="151.00" routeLength="1637.20" waitingTime="0.00" waitingCount="0" stopTime="0.00" timeLoss="15.56" rerouteNo="0" devices="tripinfo_48" vType="DEFAULT_VEHTYPE" speedFactor="0.85" vaporized=""/>
    <tripinfo id="14" depart="30.00" departLane="978867529_0" departPos="5.10" departSpeed="0.00" departDelay="0.35" arrival="254.00" arrivalLane="226276377#0_0" arrivalPos="135.52" arrivalSpeed="14.28" duration="224.00" routeLength="1369.55" waitingTime="117.00" waitingCount="2" stopTime="0.00" timeLoss="138.74" rerouteNo="0" devices="tripinfo_14" vType="DEFAULT_VEHTYPE" speedFactor="1.05" vaporized=""/>
    <tripinfo id="71" depart="151.00" departLane="-231177697#2_0" departPos="5.10" departSpeed="0.00" departDelay="0.65" arrival="255.00" arrivalLane="39907424_0" arrivalPos="316.44" arrivalSpeed="11.76" duration="104.00" routeLength="961.15" waitingTime="16.00" waitingCount="1" stopTime="0.00" timeLoss="30.71" rerouteNo="0" devices="tripinfo_71" vType="DEFAULT_VEHTYPE" speedFactor="0.92" vaporized=""/>
    <tripinfo id="52" depart="111.00" departLane="-231177697#2_0" departPos="5.10" departSpeed="0.00" departDelay="0.88" arrival="257.00" arrivalLane="226276377#0_0" arrivalPos="135.52" arrivalSpeed="13.50" duration="146.00" routeLength="1114.55" waitingTime="51.00" waitingCount="2" stopTime="0.00" timeLoss="72.51" rerouteNo="0" devices="tripinfo_52" vType="DEFAULT_VEHTYPE" speedFactor="1.03" vaporized=""/>
    <tripinfo id="64" depart="136.00" departLane="978867529_0" departPos="5.10" departSpeed="0.00" departDelay="0.47" arrival="257.00" arrivalLane="39907424_0" arrivalPos="316.44" arrivalSpeed="13.21" duration="121.00" routeLength="1216.15" waitingTime="15.00" waitingCount="1" stopTime="0.00" timeLoss="38.73" rerouteNo="0" devices="tripinfo_64" vType="DEFAULT_VEHTYPE" speedFactor="1.01" vaporized=""/>
    <tripinfo id="91" depart="193.00" departLane="E8_0" departPos="5.10" departSpeed="0.00" departDelay="0.29" arrival="257.00" arrivalLane="-256961141#1_0" arrivalPos="204.72" arrivalSpeed="15.12" duration="64.00" routeLength="832.89" waitingTime="0.00" waitingCount="0" stopTime="0.00" timeLoss="8.98" rerouteNo="0" devices="tripinfo_91" vType="DEFAULT_VEHTYPE" speedFactor="1.10" vaporized=""/>
    <tripinfo id="86" depart="183.00" departLane="256961141#0_0" departPos="5.10" departSpeed="0.00" departDelay="0.88" arrival="259.00" arrivalLane="39907424_0" arrivalPos="316.44" arrivalSpeed="13.88" duration="76.00" routeLength="873.95" waitingTime="4.00" waitingCount="1" stopTime="0.00" timeLoss="18.13" rerouteNo="0" devices="tripinfo_86" vType="DEFAULT_VEHTYPE" speedFactor="1.06" vaporized=""/>
    <tripinfo id="18" depart="39.00" departLane="978867529_0" departPos="5.10" departSpeed="0.00" departDelay="0.88" arrival="262.00" arrivalLane="226276377#0_0" arrivalPos="135.52" arrivalSpeed="11.95" duration="223.00" routeLength="1369.55" waitingTime="98.00" waitingCount="3" stopTime="0.00" timeLoss="123.87" rerouteNo="0" devices="tripinfo_18" vType="DEFAULT_VEHTYPE" speedFactor="0.90" vaporized=""/>
    <tripinfo id="58" depart="123.00" departLane="-231177697#2_0" departPos="5.10" departSpeed="0.00" departDelay="0.18" arrival="264.00" arrivalLane="226276377#0_0" arrivalPos="135.52" arrivalSpeed="13.62" duration="141.00" routeLength="1114.55" waitingTime="46.00" waitingCount="1" stopTime="0.00" timeLoss="66.90" rerouteNo="0" devices="tripinfo_58" vType="DEFAULT_VEHTYPE" speedFactor="1.02" vaporized=""/>
    <tripinfo id="19" depart="42.00" departLane="978867529_0" departPos="5.10" departSpeed="0.00" departDelay="1.76" arrival="267.00" arrivalLane="226276377#0_0" arrivalPos="135.52" arrivalSpeed="12.37" duration="225.00" routeLength="1369.55" waitingTime="98.00" waitingCount="2" stopTime="0.00" timeLoss="131.61" rerouteNo="0" devices="tripinfo_19" vType="DEFAULT_VEHTYPE" speedFactor="0.96" vaporized=""/>
    <tripinfo id="92" depart="195.00" departLane="-661251539_0" departPos="5.10" departSpeed="0.00" departDelay="0.18" arrival="267.00" arrivalLane="210831347#0_1" arrivalPos="149.88" arrivalSpeed="14.91" duration="72.00" routeLength="731.18" waitingTime="12.00" waitingCount="1" stopTime="0.00" timeLoss="23.94" rerouteNo="0" devices="tripinfo_92" vType="DEFAULT_VEHTYPE" speedFactor="1.11" vaporized=""/>
    <tripinfo id="50" depart="106.00" departLane="-218680176#1_0" departPos="5.10" departSpeed="0.00" departDelay="0.12" arrival="270.00" arrivalLane="231177697#0_0" arrivalPos="74.44" arrivalSpeed="13.45" duration="164.00" routeLength="205.97" waitingTime="129.00" waitingCount="2" stopTime="0.00" timeLoss="149.32" rerouteNo="0" devices="tripinfo_50" vType="DEFAULT_VEHTYPE" speedFactor="1.01" vaporized=""/>
    <tripinfo id="55" depart="117.00" departLane="978867529_0" departPos="5.10" departSpeed="0.00" departDelay="0.53" arrival="277.00" arrivalLane="210831345#1_1" arrivalPos="264.29" arrivalSpeed="13.86" duration="160.00" routeLength="951.92" waitingTime="83.00" waitingCount="2" stopTime="0.00" timeLoss="99.10" rerouteNo="0" devices="tripinfo_55" vType="DEFAULT_VEHTYPE" speedFactor="1.08" vaporized=""/>
    <tripinfo id="68" depart="144.00" departLane="-218680176#1_0" departPos="5.10" departSpeed="0.00" departDelay="0.00" arrival="277.00" arrivalLane="231177697#0_0" arrivalPos="74.44" arrivalSpeed="16.24" duration="133.00" routeLength="205.97" waitingTime="96.00" waitingCount="2" stopTime="0.00" timeLoss="120.29" rerouteNo="0" devices="tripinfo_68" vType="DEFAULT_VEHTYPE" speedFactor="1.21" vaporized=""/>
    <tripinfo id="66" depart="140.00" departLane="978867529_0" departPos="5.10" departSpeed="0.00" departDelay="0.24" arrival="283.00" arrivalLane="450554042#0_0" arrivalPos="622.66" arrivalSpeed="18.91" duration="143.00" routeLength="1868.58" waitingTime="14.00" waitingCount="2" stopTime="0.00" timeLoss="40.14" rerouteNo="0" devices="tripinfo_66" vType="DEFAULT_VEHTYPE" speedFactor="1.14" vaporized=""/>
    <tripinfo id="57" depart="121.00" departLane="E8_0" departPos="5.10" departSpeed="0.00" departDelay="0.29" arrival="285.00" arrivalLane="39907424_0" arrivalPos="316.44" arrivalSpeed="12.02" duration="164.00" routeLength="1303.68" waitingTime="49.00" waitingCount="1" stopTime="0.00" timeLoss="64.06" rerouteNo="0" devices="tripinfo_57" vType="DEFAULT_VEHTYPE" speedFactor="0.90" vaporized=""/>
    <tripinfo id="117" depart="248.00" departLane="-231177697#2_0" departPos="5.10" departSpeed="0.00" departDelay="0.24" arrival="288.00" arrivalLane="153964138#0_0" arrivalPos="337.99" arrivalSpeed="12.68" duration="40.00" routeLength="417.38" waitingTime="0.00" waitingCount="0" stopTime="0.00" timeLoss="6.44" rerouteNo="0" devices="tripinfo_117" vType="DEFAULT_VEHTYPE" speedFactor="0.81" vaporized=""/>
    <tripinfo id="47" depart="100.00" departLane="-218680176#1_0" departPos="5.10" departSpeed="0.00" departDelay="0.47" arrival="293.00" arrivalLane="210831347#0_0" arrivalPos="149.88" arrivalSpeed="16.88" duration="193.00" routeLength="560.58" waitingTime="133.00" waitingCount="2" stopTime="0.00" timeLoss="159.06" rerouteNo="0" devices="tripinfo_47" vType="DEFAULT_VEHTYPE" speedFactor="1.25" vaporized=""/>
    <tripinfo id="22" depart="47.00" departLane="-218680176#1_0" departPos="5.10" departSpeed="0.00" departDelay="0.41" arrival="294.00" arrivalLane="210831345#1_1" arrivalPos="264.29" arrivalSpeed="14.11" duration="247.00" routeLength="699.94" waitingTime="182.00" waitingCount="2" stopTime="0.00" timeLoss="198.47" rerouteNo="0" devices="tripinfo_22" vType="DEFAULT_VEHTYPE" speedFactor="1.07" vaporized=""/>
    <tripinfo id="95" depart="202.00" departLane="-661251539_0" departPos="5.10" departSpeed="0.00" departDelay="0.82" arrival="302.00" arrivalLane="210831345#1_0" arrivalPos="264.29" arrivalSpeed="14.32" duration="100.00" routeLength="826.64" waitingTime="24.00" waitingCount="2" stopTime="0.00" timeLoss="41.91" rerouteNo="0" devices="tripinfo_95" vType="DEFAULT_VEHTYPE" speedFactor="1.05" vaporized=""/>
    <tripinfo id="99" depart="210.00" departLane="E8_0" departPos="5.10" departSpeed="0.00" departDelay="0.35" arrival="305.00" arrivalLane="39907424_0" arrivalPos="316.44" arrivalSpeed="14.11" duration="95.00" routeLength="1303.68" waitingTime="0.00" waitingCount="0" stopTime="0.00" timeLoss="9.15" rerouteNo="0" devices="tripinfo_99" vType="DEFAULT_VEHTYPE" speedFactor="1.06" vaporized=""/>
    <tripinfo id="88" depart="187.00" departLane="-218680176#1_0" departPos="5.10" departSpeed="0.00" departDelay="0.65" arrival="309.00" arrivalLane="210831347#0_0" arrivalPos="149.88" arrivalSpeed="15.52" duration="122.00" routeLength="560.58" waitingTime="55.00" waitingCount="2" stopTime="0.00" timeLoss="85.24" rerouteNo="0" devices="tripinfo_88" vType="DEFAULT_VEHTYPE" speedFactor="1.17" vaporized=""/>
    <tripinfo id="104" depart="222.00" departLane="-661251539_0" departPos="5.10" departSpeed="0.00" departDelay="1.76" arrival="311.00" arrivalLane="450554042#0_0" arrivalPos="622.66" arrivalSpeed="16.55" duration="89.00" routeLength="1282.13" waitingTime="0.00" waitingCount="0" stopTime="0.00" timeLoss="9.31" rerouteNo="0" devices="tripinfo_104" vType="DEFAULT_VEHTYPE" speedFactor="1.04" vaporized=""/>
    <tripinfo id="120" depart="255.00" departLane="-661251539_0" departPos="5.10" departSpeed="0.00" departDelay="0.88" arrival="316.00" arrivalLane="226276377#0_0" arrivalPos="135.52" arrivalSpeed="13.56" duration="61.00" routeLength="783.10" waitingTime="0.00" waitingCount="0" stopTime="0.00" timeLoss="9.64" rerouteNo="0" devices="tripinfo_120" vType="DEFAULT_VEHTYPE" speedFactor="1.06" vaporized=""/>
    <tripinfo id="114" depart="242.00" departLane="-226276377#1_0" departPos="5.10" departSpeed="0.00" departDelay="0.59" arrival="322.00" arrivalLane="450554042#0_0" arrivalPos="622.66" arrivalSpeed="15.84" duration="80.00" routeLength="763.53" waitingTime="20.00" waitingCount="1" stopTime="0.00" timeLoss="30.37" rerouteNo="0" devices="tripinfo_114" vType="DEFAULT_VEHTYPE" speedFactor="0.97" vaporized=""/>
    <tripinfo id="119" depart="252.00" departLane="65746828#0_0" departPos="5.10" departSpeed="0.00" departDelay="0.00" arrival="324.00" arrivalLane="226276377#0_0" arrivalPos="135.52" arrivalSpeed="13.61" duration="72.00" routeLength="841.69" waitingTime="3.00" waitingCount="1" stopTime="0.00" timeLoss="17.23" rerouteNo="0" devices="tripinfo_119" vType="DEFAULT_VEHTYPE" speedFactor="1.02" vaporized=""/>
    <tripinfo id="115" depart="244.00" departLane="-218680176#1_0" departPos="5.10" departSpeed="0.00" departDelay="0.47" arrival="328.00" arrivalLane="153964138#0_2" arrivalPos="337.99" arrivalSpeed="16.97" duration="84.00" routeLength="462.27" waitingTime="47.00" waitingCount="1" stopTime="0.00" timeLoss="55.97" rerouteNo="0" devices="tripinfo_115" vType="DEFAULT_VEHTYPE" speedFactor="1.09" vaporized=""/>
    <tripinfo id="45" depart="97.00" departLane="-218680176#1_0" departPos="5.10" departSpeed="0.00" departDelay="1.71" arrival="329.00" arrivalLane="226276377#0_0" arrivalPos="135.52" arrivalSpeed="14.38" duration="232.00" routeLength="1117.57" waitingTime="134.00" waitingCount="2" stopTime="0.00" timeLoss="159.94" rerouteNo="0" devices="tripinfo_45" vType="DEFAULT_VEHTYPE" speedFactor="1.05" vaporized=""/>
    <tripinfo id="128" depart="272.00" departLane="-218680176#1_0" departPos="5.10" departSpeed="0.00" departDelay="0.94" arrival="331.00" arrivalLane="153964138#0_2" arrivalPos="337.99" arrivalSpeed="17.15" duration="59.00" routeLength="462.27" waitingTime="18.00" waitingCount="1" stopTime="0.00" timeLoss="29.66" rerouteNo="0" devices="tripinfo_128" vType="DEFAULT_VEHTYPE" speedFactor="1.04" vaporized=""/>
    <tripinfo id="145" depart="308.00" departLane="-218680176#1_0" departPos="5.10" departSpeed="0.00" departDelay="0.94" arrival="339.00" arrivalLane="231177697#0_0" arrivalPos="74.44" arrivalSpeed="12.58" duration="31.00" routeLength="205.97" waitingTime="7.00" waitingCount="1" stopTime="0.00" timeLoss="14.81" rerouteNo="0" devices="tripinfo_145" vType="DEFAULT_VEHTYPE" speedFactor="0.96" vaporized=""/>
    <tripinfo id="141" depart="299.00" departLane="65746828#0_0" departPos="5.10" departSpeed="0.00" departDelay="0.41" arrival="340.00" arrivalLane="210831345#1_0" arrivalPos="264.29" arrivalSpeed="12.29" duration="41.00" routeLength="446.75" waitingTime="0.00" waitingCount="0" stopTime="0.00" timeLoss="4.46" rerouteNo="0" devices="tripinfo_141" vType="DEFAULT_VEHTYPE" speedFactor="0.89" vaporized=""/>
    <tripinfo id="80" depart="170.00" departLane="-218680176#1_0" departPos="5.10" departSpeed="0.00" departDelay="0.59" arrival="346.00" arrivalLane="226276377#0_0" arrivalPos="135.52" arrivalSpeed="12.69" duration="176.00" routeLength="1117.57" waitingTime="68.00" waitingCount="2" stopTime="0.00" timeLoss="99.50" rerouteNo="0" devices="tripinfo_80" vType="DEFAULT_VEHTYPE" speedFactor="0.99" vaporized=""/>
    <tripinfo id="112" depart="238.00" departLane="-218680176#1_0" departPos="5.10" departSpeed="0.00" departDelay="0.82" arrival="348.00" arrivalLane="226276377#0_0" arrivalPos="135.52" arrivalSpeed="14.68" duration="110.00" routeLength="1117.57" waitingTime="13.00" waitingCount="1" stopTime="0.00" timeLoss="38.91" rerouteNo="0" devices="tripinfo_112" vType="DEFAULT_VEHTYPE" speedFactor="1.07" vaporized=""/>
    <tripinfo id="113" depart="240.00" departLane="256961141#0_0" departPos="5.10" departSpeed="0.00" departDelay="0.71" arrival="353.00" arrivalLane="39907424_0" arrivalPos="316.44" arrivalSpeed="13.40" duration="113.00" routeLength="873.95" waitingTime="35.00" waitingCount="2" stopTime="0.00" timeLoss="52.33" rerouteNo="0" devices="tripinfo_113" vType="DEFAULT_VEHTYPE" speedFactor="1.00" vaporized=""/>
    <tripinfo id="28" depart="60.00" departLane="-226276377#1_0" departPos="5.10" departSpeed="0.00" departDelay="0.71" arrival="368.00" arrivalLane="231177697#0_0" arrivalPos="74.44" arrivalSpeed="10.92" duration="308.00" routeLength="1114.63" waitingTime="188.00" waitingCount="3" stopTime="0.00" timeLoss="214.04" rerouteNo="0" devices="tripinfo_28" vType="DEFAULT_VEHTYPE" speedFactor="0.82" vaporized=""/>
    <tripinfo id="63" depart="135.00" departLane="-218680176#1_0" departPos="5.10" departSpeed="0.00" departDelay="1.59" arrival="370.00" arrivalLane="450554042#0_0" arrivalPos="622.66" arrivalSpeed="15.81" duration="235.00" routeLength="1616.60" waitingTime="103.00" waitingCount="2" stopTime="0.00" timeLoss="129.54" rerouteNo="0" devices="tripinfo_63" vType="DEFAULT_VEHTYPE" speedFactor="0.98" vaporized=""/>
    <tripinfo id="73" depart="155.00" departLane="256961141#0_0" departPos="5.10" departSpeed="0.00" departDelay="0.41" arrival="370.00" arrivalLane="231177697#0_0" arrivalPos="74.44" arrivalSpeed="14.84" duration="215.00" routeLength="1163.55" waitingTime="118.00" waitingCount="2" stopTime="0.00" timeLoss="141.02" rerouteNo="0" devices="tripinfo_73" vType="DEFAULT_VEHTYPE" speedFactor="1.11" vaporized=""/>