<?xml version="1.0" encoding="UTF-8"?>

<!-- generated on 2024-09-02 16:21:29 by Eclipse SUMO sumo Version 1.20.0
<configuration xmlns:xsi="http://www.w3.org/2001/XMLSchema-instance" xsi:noNamespaceSchemaLocation="http://sumo.dlr.de/xsd/sumoConfiguration.xsd">

    <input>
        <net-file value="c:\self\School\Master\Disertation\code\RESCO\resco_benchmark\environments/unirii/osm.net.xml.gz"/>
        <route-files value="c:\self\School\Master\Disertation\code\RESCO\resco_benchmark\environments/unirii/osm.passenger.trips.xml"/>
        <additional-files value="c:\self\School\Master\Disertation\code\RESCO\resco_benchmark\environments/unirii/osm.poly.xml.gz"/>
    </input>

    <output>
        <tripinfo-output value="C:\self\School\Master\Disertation\code\RESCO\results\IPPO-tr0-unirii-0-drq_norm-wait_norm\tripinfo_92.xml"/>
        <tripinfo-output.write-unfinished value="true"/>
    </output>

    <processing>
        <ignore-route-errors value="true"/>
        <time-to-teleport value="-1"/>
    </processing>

    <routing>
        <device.rerouting.adaptation-steps value="18"/>
        <device.rerouting.adaptation-interval value="10"/>
    </routing>

    <report>
        <verbose value="true"/>
        <no-warnings value="True"/>
        <duration-log.statistics value="true"/>
        <no-step-log value="True"/>
    </report>

    <traci_server>
        <remote-port value="64319"/>
    </traci_server>

    <random_number>
        <random value="true"/>
    </random_number>

    <gui_only>
        <gui-settings-file value="c:\self\School\Master\Disertation\code\RESCO\resco_benchmark\environments/unirii/osm.view.xml"/>
    </gui_only>

</configuration>
-->

<tripinfos xmlns:xsi="http://www.w3.org/2001/XMLSchema-instance" xsi:noNamespaceSchemaLocation="http://sumo.dlr.de/xsd/tripinfo_file.xsd">
    <tripinfo id="6" depart="13.00" departLane="-218680176#1_0" departPos="5.10" departSpeed="0.00" departDelay="0.29" arrival="59.00" arrivalLane="153964138#0_1" arrivalPos="337.99" arrivalSpeed="13.81" duration="46.00" routeLength="462.27" waitingTime="1.00" waitingCount="1" stopTime="0.00" timeLoss="9.67" rerouteNo="0" devices="tripinfo_6" vType="DEFAULT_VEHTYPE" speedFactor="0.83" vaporized=""/>
    <tripinfo id="3" depart="7.00" departLane="E8_0" departPos="5.10" departSpeed="0.00" departDelay="0.65" arrival="99.00" arrivalLane="-256961141#1_0" arrivalPos="204.72" arrivalSpeed="11.53" duration="92.00" routeLength="832.89" waitingTime="13.00" waitingCount="1" stopTime="0.00" timeLoss="24.04" rerouteNo="0" devices="tripinfo_3" vType="DEFAULT_VEHTYPE" speedFactor="0.90" vaporized=""/>
    <tripinfo id="11" depart="24.00" departLane="-661251539_0" departPos="5.10" departSpeed="0.00" departDelay="0.71" arrival="117.00" arrivalLane="153964138#0_0" arrivalPos="337.99" arrivalSpeed="21.96" duration="93.00" routeLength="1239.04" waitingTime="14.00" waitingCount="1" stopTime="0.00" timeLoss="29.36" rerouteNo="0" devices="tripinfo_11" vType="DEFAULT_VEHTYPE" speedFactor="1.34" vaporized=""/>
    <tripinfo id="1" depart="3.00" departLane="-231177697#2_0" departPos="5.10" departSpeed="0.00" departDelay="0.88" arrival="126.00" arrivalLane="210831345#1_1" arrivalPos="264.29" arrivalSpeed="14.73" duration="123.00" routeLength="696.92" waitingTime="60.00" waitingCount="2" stopTime="0.00" timeLoss="77.63" rerouteNo="0" devices="tripinfo_1" vType="DEFAULT_VEHTYPE" speedFactor="1.14" vaporized=""/>
    <tripinfo id="50" depart="106.00" departLane="-218680176#1_0" departPos="5.10" departSpeed="0.00" departDelay="0.12" arrival="127.00" arrivalLane="231177697#0_0" arrivalPos="74.44" arrivalSpeed="15.34" duration="21.00" routeLength="205.97" waitingTime="0.00" waitingCount="0" stopTime="0.00" timeLoss="8.15" rerouteNo="0" devices="tripinfo_50" vType="DEFAULT_VEHTYPE" speedFactor="1.16" vaporized=""/>
    <tripinfo id="12" depart="26.00" departLane="E8_0" departPos="5.10" departSpeed="0.00" departDelay="0.59" arrival="135.00" arrivalLane="210831347#0_1" arrivalPos="149.88" arrivalSpeed="13.14" duration="109.00" routeLength="1367.17" waitingTime="0.00" waitingCount="0" stopTime="0.00" timeLoss="10.50" rerouteNo="0" devices="tripinfo_12" vType="DEFAULT_VEHTYPE" speedFactor="0.97" vaporized=""/>
    <tripinfo id="16" depart="34.00" departLane="256961141#0_0" departPos="5.10" departSpeed="0.00" departDelay="0.12" arrival="155.00" arrivalLane="450554042#0_0" arrivalPos="622.66" arrivalSpeed="13.37" duration="121.00" routeLength="853.74" waitingTime="44.00" waitingCount="1" stopTime="0.00" timeLoss="55.95" rerouteNo="0" devices="tripinfo_16" vType="DEFAULT_VEHTYPE" speedFactor="0.84" vaporized=""/>
    <tripinfo id="47" depart="100.00" departLane="-218680176#1_0" departPos="5.10" departSpeed="0.00" departDelay="0.47" arrival="157.00" arrivalLane="210831347#0_0" arrivalPos="149.88" arrivalSpeed="15.35" duration="57.00" routeLength="560.58" waitingTime="0.00" waitingCount="0" stopTime="0.00" timeLoss="20.22" rerouteNo="0" devices="tripinfo_47" vType="DEFAULT_VEHTYPE" speedFactor="1.14" vaporized=""/>
    <tripinfo id="10" depart="23.00" departLane="978867529_0" departPos="5.10" departSpeed="0.00" departDelay="1.82" arrival="163.00" arrivalLane="231177697#0_1" arrivalPos="74.44" arrivalSpeed="14.73" duration="140.00" routeLength="437.06" waitingTime="102.00" waitingCount="1" stopTime="0.00" timeLoss="113.42" rerouteNo="0" devices="tripinfo_10" vType="DEFAULT_VEHTYPE" speedFactor="1.09" vaporized=""/>
    <tripinfo id="7" depart="15.00" departLane="65746828#0_0" departPos="5.10" departSpeed="0.00" departDelay="0.18" arrival="166.00" arrivalLane="218680176#0_1" arrivalPos="98.94" arrivalSpeed="11.65" duration="151.00" routeLength="602.71" waitingTime="90.00" waitingCount="1" stopTime="0.00" timeLoss="101.43" rerouteNo="0" devices="tripinfo_7" vType="DEFAULT_VEHTYPE" speedFactor="0.91" vaporized=""/>
    <tripinfo id="14" depart="30.00" departLane="978867529_0" departPos="5.10" departSpeed="0.00" departDelay="0.35" arrival="166.00" arrivalLane="226276377#0_0" arrivalPos="135.52" arrivalSpeed="14.71" duration="136.00" routeLength="1369.55" waitingTime="36.00" waitingCount="1" stopTime="0.00" timeLoss="52.96" rerouteNo="0" devices="tripinfo_14" vType="DEFAULT_VEHTYPE" speedFactor="1.08" vaporized=""/>
    <tripinfo id="15" depart="33.00" departLane="978867529_0" departPos="5.10" departSpeed="0.00" departDelay="1.24" arrival="166.00" arrivalLane="231177697#0_1" arrivalPos="74.44" arrivalSpeed="11.99" duration="133.00" routeLength="437.06" waitingTime="93.00" waitingCount="1" stopTime="0.00" timeLoss="103.33" rerouteNo="0" devices="tripinfo_15" vType="DEFAULT_VEHTYPE" speedFactor="0.96" vaporized=""/>
    <tripinfo id="5" depart="11.00" departLane="-226276377#1_0" departPos="5.10" departSpeed="0.00" departDelay="0.41" arrival="168.00" arrivalLane="218680176#0_1" arrivalPos="98.94" arrivalSpeed="12.12" duration="157.00" routeLength="1158.55" waitingTime="47.00" waitingCount="2" stopTime="0.00" timeLoss="71.66" rerouteNo="0" devices="tripinfo_5" vType="DEFAULT_VEHTYPE" speedFactor="0.95" vaporized=""/>
    <tripinfo id="18" depart="39.00" departLane="978867529_0" departPos="5.10" departSpeed="0.00" departDelay="0.88" arrival="168.00" arrivalLane="226276377#0_0" arrivalPos="135.52" arrivalSpeed="14.60" duration="129.00" routeLength="1369.55" waitingTime="33.00" waitingCount="1" stopTime="0.00" timeLoss="46.02" rerouteNo="0" devices="tripinfo_18" vType="DEFAULT_VEHTYPE" speedFactor="1.08" vaporized=""/>
    <tripinfo id="32" depart="68.00" departLane="978867529_0" departPos="5.10" departSpeed="0.00" departDelay="0.24" arrival="168.00" arrivalLane="231177697#0_1" arrivalPos="74.44" arrivalSpeed="14.66" duration="100.00" routeLength="437.06" waitingTime="61.00" waitingCount="1" stopTime="0.00" timeLoss="73.65" rerouteNo="0" devices="tripinfo_32" vType="DEFAULT_VEHTYPE" speedFactor="1.10" vaporized=""/>
    <tripinfo id="17" depart="36.00" departLane="-661251539_0" departPos="5.10" departSpeed="0.00" departDelay="0.00" arrival="169.00" arrivalLane="218680176#0_1" arrivalPos="98.94" arrivalSpeed="13.70" duration="133.00" routeLength="1001.21" waitingTime="44.00" waitingCount="1" stopTime="0.00" timeLoss="62.23" rerouteNo="0" devices="tripinfo_17" vType="DEFAULT_VEHTYPE" speedFactor="1.03" vaporized=""/>
    <tripinfo id="19" depart="42.00" departLane="978867529_0" departPos="5.10" departSpeed="0.00" departDelay="1.76" arrival="173.00" arrivalLane="226276377#0_0" arrivalPos="135.52" arrivalSpeed="11.30" duration="131.00" routeLength="1369.55" waitingTime="13.00" waitingCount="1" stopTime="0.00" timeLoss="28.38" rerouteNo="0" devices="tripinfo_19" vType="DEFAULT_VEHTYPE" speedFactor="0.88" vaporized=""/>
    <tripinfo id="54" depart="115.00" departLane="256961141#0_0" departPos="5.10" departSpeed="0.00" departDelay="0.65" arrival="173.00" arrivalLane="450554042#0_0" arrivalPos="622.66" arrivalSpeed="16.60" duration="58.00" routeLength="853.74" waitingTime="0.00" waitingCount="0" stopTime="0.00" timeLoss="5.41" rerouteNo="0" devices="tripinfo_54" vType="DEFAULT_VEHTYPE" speedFactor="1.04" vaporized=""/>
    <tripinfo id="27" depart="58.00" departLane="65746828#0_0" departPos="5.10" departSpeed="0.00" departDelay="0.82" arrival="174.00" arrivalLane="226276377#0_0" arrivalPos="135.52" arrivalSpeed="13.50" duration="116.00" routeLength="841.69" waitingTime="47.00" waitingCount="1" stopTime="0.00" timeLoss="64.62" rerouteNo="0" devices="tripinfo_27" vType="DEFAULT_VEHTYPE" speedFactor="1.09" vaporized=""/>
    <tripinfo id="30" depart="64.00" departLane="E8_0" departPos="5.10" departSpeed="0.00" departDelay="0.47" arrival="195.00" arrivalLane="226276377#0_1" arrivalPos="135.52" arrivalSpeed="12.02" duration="131.00" routeLength="784.51" waitingTime="54.00" waitingCount="1" stopTime="0.00" timeLoss="64.81" rerouteNo="0" devices="tripinfo_30" vType="DEFAULT_VEHTYPE" speedFactor="0.87" vaporized=""/>
    <tripinfo id="0" depart="0.00" departLane="65746828#0_0" departPos="5.10" departSpeed="0.00" departDelay="0.00" arrival="197.00" arrivalLane="-256961141#1_1" arrivalPos="204.72" arrivalSpeed="14.70" duration="197.00" routeLength="931.50" waitingTime="120.00" waitingCount="2" stopTime="0.00" timeLoss="139.89" rerouteNo="0" devices="tripinfo_0" vType="DEFAULT_VEHTYPE" speedFactor="1.10" vaporized=""/>
    <tripinfo id="4" depart="9.00" departLane="-661251539_0" departPos="5.10" departSpeed="0.00" departDelay="0.53" arrival="201.00" arrivalLane="-256961141#1_1" arrivalPos="204.72" arrivalSpeed="12.63" duration="192.00" routeLength="872.91" waitingTime="115.00" waitingCount="1" stopTime="0.00" timeLoss="129.57" rerouteNo="0" devices="tripinfo_4" vType="DEFAULT_VEHTYPE" speedFactor="0.99" vaporized=""/>
    <tripinfo id="20" depart="43.00" departLane="666135205#0_0" departPos="5.10" departSpeed="0.00" departDelay="0.65" arrival="204.00" arrivalLane="-256961141#1_1" arrivalPos="204.72" arrivalSpeed="12.61" duration="161.00" routeLength="1068.72" waitingTime="70.00" waitingCount="1" stopTime="0.00" timeLoss="81.83" rerouteNo="0" devices="tripinfo_20" vType="DEFAULT_VEHTYPE" speedFactor="0.92" vaporized=""/>
    <tripinfo id="9" depart="20.00" departLane="978867529_0" departPos="5.10" departSpeed="0.00" departDelay="0.94" arrival="206.00" arrivalLane="-256961141#1_1" arrivalPos="204.72" arrivalSpeed="12.51" duration="186.00" routeLength="1459.36" waitingTime="61.00" waitingCount="2" stopTime="0.00" timeLoss="81.98" rerouteNo="0" devices="tripinfo_9" vType="DEFAULT_VEHTYPE" speedFactor="0.93" vaporized=""/>
    <tripinfo id="13" depart="28.00" departLane="-218680176#1_0" departPos="5.10" departSpeed="0.00" departDelay="0.47" arrival="207.00" arrivalLane="-256961141#1_1" arrivalPos="204.72" arrivalSpeed="13.90" duration="179.00" routeLength="1207.38" waitingTime="81.00" waitingCount="2" stopTime="0.00" timeLoss="100.65" rerouteNo="0" devices="tripinfo_13" vType="DEFAULT_VEHTYPE" speedFactor="1.05" vaporized=""/>
    <tripinfo id="44" depart="94.00" departLane="-218680176#1_0" departPos="5.10" departSpeed="0.00" departDelay="0.82" arrival="212.00" arrivalLane="-256961141#1_1" arrivalPos="204.72" arrivalSpeed="11.60" duration="118.00" routeLength="1207.38" waitingTime="1.00" waitingCount="1" stopTime="0.00" timeLoss="20.65" rerouteNo="0" devices="tripinfo_44" vType="DEFAULT_VEHTYPE" speedFactor="0.85" vaporized=""/>
    <tripinfo id="33" depart="70.00" departLane="-231177697#2_0" departPos="5.10" departSpeed="0.00" departDelay="0.12" arrival="213.00" arrivalLane="-256961141#1_1" arrivalPos="204.72" arrivalSpeed="12.91" duration="143.00" routeLength="1204.36" waitingTime="49.00" waitingCount="1" stopTime="0.00" timeLoss="66.29" rerouteNo="0" devices="tripinfo_33" vType="DEFAULT_VEHTYPE" speedFactor="1.06" vaporized=""/>
    <tripinfo id="49" depart="105.00" departLane="E8_0" departPos="5.10" departSpeed="0.00" departDelay="1.24" arrival="215.00" arrivalLane="39907424_0" arrivalPos="316.44" arrivalSpeed="12.34" duration="110.00" routeLength="1303.68" waitingTime="3.00" waitingCount="1" stopTime="0.00" timeLoss="15.47" rerouteNo="0" devices="tripinfo_49" vType="DEFAULT_VEHTYPE" speedFactor="0.96" vaporized=""/>
    <tripinfo id="29" depart="63.00" departLane="-226276377#1_0" departPos="5.10" departSpeed="0.00" departDelay="1.59" arrival="218.00" arrivalLane="210831347#0_1" arrivalPos="149.88" arrivalSpeed="17.18" duration="155.00" routeLength="888.52" waitingTime="85.00" waitingCount="2" stopTime="0.00" timeLoss="106.90" rerouteNo="0" devices="tripinfo_29" vType="DEFAULT_VEHTYPE" speedFactor="1.29" vaporized=""/>
    <tripinfo id="53" depart="113.00" departLane="-226276377#1_0" departPos="5.10" departSpeed="0.00" departDelay="0.76" arrival="221.00" arrivalLane="210831347#0_1" arrivalPos="149.88" arrivalSpeed="14.11" duration="108.00" routeLength="888.52" waitingTime="35.00" waitingCount="1" stopTime="0.00" timeLoss="48.63" rerouteNo="0" devices="tripinfo_53" vType="DEFAULT_VEHTYPE" speedFactor="1.03" vaporized=""/>
    <tripinfo id="79" depart="168.00" departLane="-231177697#2_0" departPos="5.10" departSpeed="0.00" departDelay="0.71" arrival="221.00" arrivalLane="153964138#0_0" arrivalPos="337.99" arrivalSpeed="18.29" duration="53.00" routeLength="417.38" waitingTime="19.00" waitingCount="1" stopTime="0.00" timeLoss="28.57" rerouteNo="0" devices="tripinfo_79" vType="DEFAULT_VEHTYPE" speedFactor="1.11" vaporized=""/>
    <tripinfo id="57" depart="121.00" departLane="E8_0" departPos="5.10" departSpeed="0.00" departDelay="0.29" arrival="222.00" arrivalLane="39907424_0" arrivalPos="316.44" arrivalSpeed="13.81" duration="101.00" routeLength="1303.68" waitingTime="0.00" waitingCount="0" stopTime="0.00" timeLoss="11.60" rerouteNo="0" devices="tripinfo_57" vType="DEFAULT_VEHTYPE" speedFactor="1.01" vaporized=""/>
    <tripinfo id="22" depart="47.00" departLane="-218680176#1_0" departPos="5.10" departSpeed="0.00" departDelay="0.41" arrival="224.00" arrivalLane="210831345#1_1" arrivalPos="264.29" arrivalSpeed="15.88" duration="177.00" routeLength="699.94" waitingTime="115.00" waitingCount="2" stopTime="0.00" timeLoss="133.86" rerouteNo="0" devices="tripinfo_22" vType="DEFAULT_VEHTYPE" speedFactor="1.20" vaporized=""/>
    <tripinfo id="23" depart="50.00" departLane="-218680176#1_0" departPos="5.10" departSpeed="0.00" departDelay="1.29" arrival="234.00" arrivalLane="210831345#1_0" arrivalPos="264.29" arrivalSpeed="11.82" duration="184.00" routeLength="699.94" waitingTime="107.00" waitingCount="2" stopTime="0.00" timeLoss="123.39" rerouteNo="0" devices="tripinfo_23" vType="DEFAULT_VEHTYPE" speedFactor="0.86" vaporized=""/>
    <tripinfo id="21" depart="45.00" departLane="-231177697#2_0" departPos="5.10" departSpeed="0.00" departDelay="0.53" arrival="235.00" arrivalLane="210831345#1_1" arrivalPos="264.29" arrivalSpeed="12.35" duration="190.00" routeLength="696.92" waitingTime="116.00" waitingCount="2" stopTime="0.00" timeLoss="135.20" rerouteNo="0" devices="tripinfo_21" vType="DEFAULT_VEHTYPE" speedFactor="0.94" vaporized=""/>
    <tripinfo id="34" depart="72.00" departLane="-231177697#2_0" departPos="5.10" departSpeed="0.00" departDelay="0.00" arrival="237.00" arrivalLane="210831345#1_1" arrivalPos="264.29" arrivalSpeed="12.77" duration="165.00" routeLength="696.92" waitingTime="89.00" waitingCount="2" stopTime="0.00" timeLoss="112.70" rerouteNo="0" devices="tripinfo_34" vType="DEFAULT_VEHTYPE" speedFactor="0.99" vaporized=""/>
    <tripinfo id="35" depart="75.00" departLane="-226276377#1_0" departPos="5.10" departSpeed="0.00" departDelay="0.88" arrival="239.00" arrivalLane="450554042#0_0" arrivalPos="622.66" arrivalSpeed="17.32" duration="164.00" routeLength="763.53" waitingTime="107.00" waitingCount="1" stopTime="0.00" timeLoss="118.27" rerouteNo="0" devices="tripinfo_35" vType="DEFAULT_VEHTYPE" speedFactor="1.07" vaporized=""/>
    <tripinfo id="39" depart="83.00" departLane="-231177697#2_0" departPos="5.10" departSpeed="0.00" departDelay="0.41" arrival="239.00" arrivalLane="210831345#1_1" arrivalPos="264.29" arrivalSpeed="11.25" duration="156.00" routeLength="696.92" waitingTime="79.00" waitingCount="2" stopTime="0.00" timeLoss="97.57" rerouteNo="0" devices="tripinfo_39" vType="DEFAULT_VEHTYPE" speedFactor="0.88" vaporized=""/>
    <tripinfo id="62" depart="132.00" departLane="-218680176#1_0" departPos="5.10" departSpeed="0.00" departDelay="0.71" arrival="239.00" arrivalLane="210831345#1_0" arrivalPos="264.29" arrivalSpeed="14.44" duration="107.00" routeLength="699.94" waitingTime="37.00" waitingCount="2" stopTime="0.00" timeLoss="59.06" rerouteNo="0" devices="tripinfo_62" vType="DEFAULT_VEHTYPE" speedFactor="1.07" vaporized=""/>
    <tripinfo id="68" depart="144.00" departLane="-218680176#1_0" departPos="5.10" departSpeed="0.00" departDelay="0.00" arrival="239.00" arrivalLane="231177697#0_0" arrivalPos="74.44" arrivalSpeed="13.12" duration="95.00" routeLength="205.97" waitingTime="62.00" waitingCount="3" stopTime="0.00" timeLoss="79.59" rerouteNo="0" devices="tripinfo_68" vType="DEFAULT_VEHTYPE" speedFactor="0.97" vaporized=""/>
    <tripinfo id="45" depart="97.00" departLane="-218680176#1_0" departPos="5.10" departSpeed="0.00" departDelay="1.71" arrival="243.00" arrivalLane="226276377#0_0" arrivalPos="135.52" arrivalSpeed="12.83" duration="146.00" routeLength="1117.57" waitingTime="43.00" waitingCount="1" stopTime="0.00" timeLoss="65.15" rerouteNo="0" devices="tripinfo_45" vType="DEFAULT_VEHTYPE" speedFactor="0.94" vaporized=""/>
    <tripinfo id="58" depart="123.00" departLane="-231177697#2_0" departPos="5.10" departSpeed="0.00" departDelay="0.18" arrival="244.00" arrivalLane="226276377#0_0" arrivalPos="135.52" arrivalSpeed="13.77" duration="121.00" routeLength="1114.55" waitingTime="30.00" waitingCount="2" stopTime="0.00" timeLoss="54.64" rerouteNo="0" devices="tripinfo_58" vType="DEFAULT_VEHTYPE" speedFactor="1.13" vaporized=""/>
    <tripinfo id="40" depart="85.00" departLane="65746828#0_0" departPos="5.10" departSpeed="0.00" departDelay="0.29" arrival="247.00" arrivalLane="210831345#1_0" arrivalPos="264.29" arrivalSpeed="13.94" duration="162.00" routeLength="446.75" waitingTime="117.00" waitingCount="2" stopTime="0.00" timeLoss="132.35" rerouteNo="0" devices="tripinfo_40" vType="DEFAULT_VEHTYPE" speedFactor="1.09" vaporized=""/>
    <tripinfo id="52" depart="111.00" departLane="-231177697#2_0" departPos="5.10" departSpeed="0.00" departDelay="0.88" arrival="248.00" arrivalLane="226276377#0_0" arrivalPos="135.52" arrivalSpeed="12.22" duration="137.00" routeLength="1114.55" waitingTime="35.00" waitingCount="2" stopTime="0.00" timeLoss="54.46" rerouteNo="0" devices="tripinfo_52" vType="DEFAULT_VEHTYPE" speedFactor="0.92" vaporized=""/>
    <tripinfo id="78" depart="166.00" departLane="-661251539_0" departPos="5.10" departSpeed="0.00" departDelay="0.82" arrival="252.00" arrivalLane="226276377#0_0" arrivalPos="135.52" arrivalSpeed="11.27" duration="86.00" routeLength="783.10" waitingTime="1.00" waitingCount="1" stopTime="0.00" timeLoss="19.25" rerouteNo="0" devices="tripinfo_78" vType="DEFAULT_VEHTYPE" speedFactor="0.82" vaporized=""/>
    <tripinfo id="86" depart="183.00" departLane="256961141#0_0" departPos="5.10" departSpeed="0.00" departDelay="0.88" arrival="256.00" arrivalLane="39907424_0" arrivalPos="316.44" arrivalSpeed="13.75" duration="73.00" routeLength="873.95" waitingTime="0.00" waitingCount="0" stopTime="0.00" timeLoss="14.56" rerouteNo="0" devices="tripinfo_86" vType="DEFAULT_VEHTYPE" speedFactor="1.05" vaporized=""/>
    <tripinfo id="75" depart="159.00" departLane="E8_0" departPos="5.10" departSpeed="0.00" departDelay="0.18" arrival="270.00" arrivalLane="226276377#0_1" arrivalPos="135.52" arrivalSpeed="11.79" duration="111.00" routeLength="784.51" waitingTime="34.00" waitingCount="1" stopTime="0.00" timeLoss="46.04" rerouteNo="0" devices="tripinfo_75" vType="DEFAULT_VEHTYPE" speedFactor="0.89" vaporized=""/>
    <tripinfo id="85" depart="180.00" departLane="E8_0" departPos="5.10" departSpeed="0.00" departDelay="0.00" arrival="272.00" arrivalLane="226276377#0_1" arrivalPos="135.52" arrivalSpeed="12.04" duration="92.00" routeLength="784.51" waitingTime="17.00" waitingCount="1" stopTime="0.00" timeLoss="27.89" rerouteNo="0" devices="tripinfo_85" vType="DEFAULT_VEHTYPE" speedFactor="0.90" vaporized=""/>
    <tripinfo id="26" depart="56.00" departLane="-231177697#2_0" departPos="5.10" departSpeed="0.00" departDelay="0.94" arrival="275.00" arrivalLane="450554042#0_0" arrivalPos="622.66" arrivalSpeed="14.45" duration="219.00" routeLength="1613.58" waitingTime="89.00" waitingCount="2" stopTime="0.00" timeLoss="105.64" rerouteNo="0" devices="tripinfo_26" vType="DEFAULT_VEHTYPE" speedFactor="0.91" vaporized=""/>
    <tripinfo id="65" depart="138.00" departLane="-231177697#2_0" departPos="5.10" departSpeed="0.00" departDelay="0.35" arrival="275.00" arrivalLane="-256961141#1_1" arrivalPos="204.72" arrivalSpeed="11.83" duration="137.00" routeLength="1204.36" waitingTime="34.00" waitingCount="1" stopTime="0.00" timeLoss="46.38" rerouteNo="0" devices="tripinfo_65" vType="DEFAULT_VEHTYPE" speedFactor="0.90" vaporized=""/>
    <tripinfo id="115" depart="244.00" departLane="-218680176#1_0" departPos="5.10" departSpeed="0.00" departDelay="0.47" arrival="280.00" arrivalLane="153964138#0_2" arrivalPos="337.99" arrivalSpeed="15.36" duration="36.00" routeLength="462.27" waitingTime="0.00" waitingCount="0" stopTime="0.00" timeLoss="4.58" rerouteNo="0" devices="tripinfo_115" vType="DEFAULT_VEHTYPE" speedFactor="0.96" vaporized=""/>
    <tripinfo id="88" depart="187.00" departLane="-218680176#1_0" departPos="5.10" departSpeed="0.00" departDelay="0.65" arrival="281.00" arrivalLane="210831347#0_0" arrivalPos="149.88" arrivalSpeed="12.48" duration="94.00" routeLength="560.58" waitingTime="26.00" waitingCount="2" stopTime="0.00" timeLoss="48.62" rerouteNo="0" devices="tripinfo_88" vType="DEFAULT_VEHTYPE" speedFactor="0.92" vaporized=""/>
    <tripinfo id="95" depart="202.00" departLane="-661251539_0" departPos="5.10" departSpeed="0.00" departDelay="0.82" arrival="285.00" arrivalLane="210831345#1_0" arrivalPos="264.29" arrivalSpeed="12.05" duration="83.00" routeLength="826.64" waitingTime="0.00" waitingCount="0" stopTime="0.00" timeLoss="16.44" rerouteNo="0" devices="tripinfo_95" vType="DEFAULT_VEHTYPE" speedFactor="0.91" vaporized=""/>
    <tripinfo id="103" depart="219.00" departLane="-661251539_0" departPos="5.10" departSpeed="0.00" departDelay="0.88" arrival="287.00" arrivalLane="-256961141#1_1" arrivalPos="204.72" arrivalSpeed="13.90" duration="68.00" routeLength="872.91" waitingTime="0.00" waitingCount="0" stopTime="0.00" timeLoss="8.44" rerouteNo="0" devices="tripinfo_103" vType="DEFAULT_VEHTYPE" speedFactor="1.02" vaporized=""/>
    <tripinfo id="51" depart="108.00" departLane="666135205#0_0" departPos="5.10" departSpeed="0.00" departDelay="0.00" arrival="290.00" arrivalLane="218680176#0_1" arrivalPos="98.94" arrivalSpeed="14.63" duration="182.00" routeLength="693.09" waitingTime="117.00" waitingCount="2" stopTime="0.00" timeLoss="134.77" rerouteNo="0" devices="tripinfo_51" vType="DEFAULT_VEHTYPE" speedFactor="1.10" vaporized=""/>
    <tripinfo id="60" depart="128.00" departLane="666135205#0_0" departPos="5.10" departSpeed="0.00" departDelay="0.94" arrival="292.00" arrivalLane="218680176#0_1" arrivalPos="98.94" arrivalSpeed="13.68" duration="164.00" routeLength="693.09" waitingTime="93.00" waitingCount="3" stopTime="0.00" timeLoss="112.22" rerouteNo="0" devices="tripinfo_60" vType="DEFAULT_VEHTYPE" speedFactor="0.99" vaporized=""/>
    <tripinfo id="48" depart="102.00" departLane="E8_0" departPos="5.10" departSpeed="0.00" departDelay="0.35" arrival="294.00" arrivalLane="218680176#0_1" arrivalPos="98.94" arrivalSpeed="14.07" duration="192.00" routeLength="1637.20" waitingTime="60.00" waitingCount="2" stopTime="0.00" timeLoss="85.95" rerouteNo="0" devices="tripinfo_48" vType="DEFAULT_VEHTYPE" speedFactor="1.09" vaporized=""/>
    <tripinfo id="38" depart="81.00" departLane="E8_0" departPos="5.10" departSpeed="0.00" departDelay="0.53" arrival="298.00" arrivalLane="218680176#0_1" arrivalPos="98.94" arrivalSpeed="11.11" duration="217.00" routeLength="1637.20" waitingTime="56.00" waitingCount="2" stopTime="0.00" timeLoss="78.20" rerouteNo="0" devices="tripinfo_38" vType="DEFAULT_VEHTYPE" speedFactor="0.83" vaporized=""/>
    <tripinfo id="43" depart="92.00" departLane="E8_0" departPos="5.10" departSpeed="0.00" departDelay="0.94" arrival="300.00" arrivalLane="218680176#0_1" arrivalPos="98.94" arrivalSpeed="12.71" duration="208.00" routeLength="1637.20" waitingTime="51.00" waitingCount="2" stopTime="0.00" timeLoss="83.76" rerouteNo="0" devices="tripinfo_43" vType="DEFAULT_VEHTYPE" speedFactor="0.92" vaporized=""/>
    <tripinfo id="76" depart="161.00" departLane="-661251539_0" departPos="5.10" departSpeed="0.00" departDelay="0.06" arrival="302.00" arrivalLane="218680176#0_1" arrivalPos="98.94" arrivalSpeed="14.81" duration="141.00" routeLength="1001.21" waitingTime="40.00" waitingCount="2" stopTime="0.00" timeLoss="73.19" rerouteNo="0" devices="tripinfo_76" vType="DEFAULT_VEHTYPE" speedFactor="1.09" vaporized=""/>
    <tripinfo id="89" depart="189.00" departLane="-661251539_0" departPos="5.10" departSpeed="0.00" departDelay="0.53" arrival="304.00" arrivalLane="218680176#0_1" arrivalPos="98.94" arrivalSpeed="11.61" duration="115.00" routeLength="1001.21" waitingTime="10.00" waitingCount="1" stopTime="0.00" timeLoss="32.61" rerouteNo="0" devices="tripinfo_89" vType="DEFAULT_VEHTYPE" speedFactor="0.90" vaporized=""/>
    <tripinfo id="70" depart="149.00" departLane="256961141#0_0" departPos="5.10" departSpeed="0.00" departDelay="0.76" arrival="305.00" arrivalLane="218680176#0_1" arrivalPos="98.94" arrivalSpeed="12.77" duration="156.00" routeLength="1207.47" waitingTime="47.00" waitingCount="2" stopTime="0.00" timeLoss="80.98" rerouteNo="0" devices="tripinfo_70" vType="DEFAULT_VEHTYPE" speedFactor="1.13" vaporized=""/>
    <tripinfo id="71" depart="151.00" departLane="-231177697#2_0" departPos="5.10" departSpeed="0.00" departDelay="0.65" arrival="305.00" arrivalLane="39907424_0" arrivalPos="316.44" arrivalSpeed="12.22" duration="154.00" routeLength="961.15" waitingTime="58.00" waitingCount="2" stopTime="0.00" timeLoss="77.11" rerouteNo="0" devices="tripinfo_71" vType="DEFAULT_VEHTYPE" speedFactor="0.89" vaporized=""/>
    <tripinfo id="114" depart="242.00" departLane="-226276377#1_0" departPos="5.10" departSpeed="0.00" departDelay="0.59" arrival="318.00" arrivalLane="450554042#0_0" arrivalPos="622.66" arrivalSpeed="15.32" duration="76.00" routeLength="763.53" waitingTime="15.00" waitingCount="1" stopTime="0.00" timeLoss="24.57" rerouteNo="0" devices="tripinfo_114" vType="DEFAULT_VEHTYPE" speedFactor="0.94" vaporized=""/>
    <tripinfo id="121" depart="257.00" departLane="256961141#0_0" departPos="5.10" departSpeed="0.00" departDelay="0.76" arrival="318.00" arrivalLane="450554042#0_1" arrivalPos="622.66" arrivalSpeed="18.47" duration="61.00" routeLength="853.74" waitingTime="1.00" waitingCount="1" stopTime="0.00" timeLoss="11.81" rerouteNo="0" devices="tripinfo_121" vType="DEFAULT_VEHTYPE" speedFactor="1.11" vaporized=""/>
    <tripinfo id="123" depart="261.00" departLane="-231177697#2_0" departPos="5.10" departSpeed="0.00" departDelay="0.53" arrival="322.00" arrivalLane="210831347#0_0" arrivalPos="149.88" arrivalSpeed="11.97" duration="61.00" routeLength="557.56" waitingTime="3.00" waitingCount="1" stopTime="0.00" timeLoss="13.41" rerouteNo="0" devices="tripinfo_123" vType="DEFAULT_VEHTYPE" speedFactor="0.88" vaporized=""/>
    <tripinfo id="117" depart="248.00" departLane="-231177697#2_0" departPos="5.10" departSpeed="0.00" departDelay="0.24" arrival="323.00" arrivalLane="153964138#0_0" arrivalPos="337.99" arrivalSpeed="16.50" duration="75.00" routeLength="417.38" waitingTime="39.00" waitingCount="1" stopTime="0.00" timeLoss="47.69" rerouteNo="0" devices="tripinfo_117" vType="DEFAULT_VEHTYPE" speedFactor="1.00" vaporized=""/>
    <tripinfo id="145" depart="308.00" departLane="-218680176#1_0" departPos="5.10" departSpeed="0.00" departDelay="0.94" arrival="326.00" arrivalLane="231177697#0_0" arrivalPos="74.44" arrivalSpeed="13.53" duration="18.00" routeLength="205.97" waitingTime="0.00" waitingCount="0" stopTime="0.00" timeLoss="3.90" rerouteNo="0" devices="tripinfo_145" vType="DEFAULT_VEHTYPE" speedFactor="1.05" vaporized=""/>
    <tripinfo id="74" depart="157.00" departLane="-226276377#1_0" departPos="5.10" departSpeed="0.00" departDelay="0.29" arrival="342.00" arrivalLane="210831345#1_0" arrivalPos="264.29" arrivalSpeed="13.17" duration="185.00" routeLength="977.93" waitingTime="105.00" waitingCount="1" stopTime="0.00" timeLoss="118.34" rerouteNo="0" devices="tripinfo_74" vType="DEFAULT_VEHTYPE" speedFactor="1.02" vaporized=""/>