<?xml version="1.0" encoding="UTF-8"?>

<!-- generated on 2024-09-02 16:15:02 by Eclipse SUMO sumo Version 1.20.0
<configuration xmlns:xsi="http://www.w3.org/2001/XMLSchema-instance" xsi:noNamespaceSchemaLocation="http://sumo.dlr.de/xsd/sumoConfiguration.xsd">

    <input>
        <net-file value="c:\self\School\Master\Disertation\code\RESCO\resco_benchmark\environments/unirii/osm.net.xml.gz"/>
        <route-files value="c:\self\School\Master\Disertation\code\RESCO\resco_benchmark\environments/unirii/osm.passenger.trips.xml"/>
        <additional-files value="c:\self\School\Master\Disertation\code\RESCO\resco_benchmark\environments/unirii/osm.poly.xml.gz"/>
    </input>

    <output>
        <tripinfo-output value="C:\self\School\Master\Disertation\code\RESCO\results\IPPO-tr0-unirii-0-drq_norm-wait_norm\tripinfo_31.xml"/>
        <tripinfo-output.write-unfinished value="true"/>
    </output>

    <processing>
        <ignore-route-errors value="true"/>
        <time-to-teleport value="-1"/>
    </processing>

    <routing>
        <device.rerouting.adaptation-steps value="18"/>
        <device.rerouting.adaptation-interval value="10"/>
    </routing>

    <report>
        <verbose value="true"/>
        <no-warnings value="True"/>
        <duration-log.statistics value="true"/>
        <no-step-log value="True"/>
    </report>

    <traci_server>
        <remote-port value="64020"/>
    </traci_server>

    <random_number>
        <random value="true"/>
    </random_number>

    <gui_only>
        <gui-settings-file value="c:\self\School\Master\Disertation\code\RESCO\resco_benchmark\environments/unirii/osm.view.xml"/>
    </gui_only>

</configuration>
-->

<tripinfos xmlns:xsi="http://www.w3.org/2001/XMLSchema-instance" xsi:noNamespaceSchemaLocation="http://sumo.dlr.de/xsd/tripinfo_file.xsd">
    <tripinfo id="10" depart="23.00" departLane="978867529_0" departPos="5.10" departSpeed="0.00" departDelay="1.82" arrival="63.00" arrivalLane="231177697#0_1" arrivalPos="74.44" arrivalSpeed="15.02" duration="40.00" routeLength="437.06" waitingTime="3.00" waitingCount="1" stopTime="0.00" timeLoss="13.23" rerouteNo="0" devices="tripinfo_10" vType="DEFAULT_VEHTYPE" speedFactor="1.08" vaporized=""/>
    <tripinfo id="15" depart="33.00" departLane="978867529_0" departPos="5.10" departSpeed="0.00" departDelay="1.24" arrival="70.00" arrivalLane="231177697#0_1" arrivalPos="74.44" arrivalSpeed="11.77" duration="37.00" routeLength="437.06" waitingTime="0.00" waitingCount="0" stopTime="0.00" timeLoss="6.22" rerouteNo="0" devices="tripinfo_15" vType="DEFAULT_VEHTYPE" speedFactor="0.92" vaporized=""/>
    <tripinfo id="3" depart="7.00" departLane="E8_0" departPos="5.10" departSpeed="0.00" departDelay="0.65" arrival="95.00" arrivalLane="-256961141#1_0" arrivalPos="204.72" arrivalSpeed="14.41" duration="88.00" routeLength="832.89" waitingTime="21.00" waitingCount="1" stopTime="0.00" timeLoss="33.19" rerouteNo="0" devices="tripinfo_3" vType="DEFAULT_VEHTYPE" speedFactor="1.12" vaporized=""/>
    <tripinfo id="32" depart="68.00" departLane="978867529_0" departPos="5.10" departSpeed="0.00" departDelay="0.24" arrival="113.00" arrivalLane="231177697#0_1" arrivalPos="74.44" arrivalSpeed="13.05" duration="45.00" routeLength="437.06" waitingTime="6.00" waitingCount="1" stopTime="0.00" timeLoss="17.16" rerouteNo="0" devices="tripinfo_32" vType="DEFAULT_VEHTYPE" speedFactor="1.02" vaporized=""/>
    <tripinfo id="7" depart="15.00" departLane="65746828#0_0" departPos="5.10" departSpeed="0.00" departDelay="0.18" arrival="115.00" arrivalLane="218680176#0_1" arrivalPos="98.94" arrivalSpeed="15.53" duration="100.00" routeLength="602.71" waitingTime="42.00" waitingCount="2" stopTime="0.00" timeLoss="60.08" rerouteNo="0" devices="tripinfo_7" vType="DEFAULT_VEHTYPE" speedFactor="1.13" vaporized=""/>
    <tripinfo id="17" depart="36.00" departLane="-661251539_0" departPos="5.10" departSpeed="0.00" departDelay="0.00" arrival="124.00" arrivalLane="218680176#0_1" arrivalPos="98.94" arrivalSpeed="12.13" duration="88.00" routeLength="1001.21" waitingTime="0.00" waitingCount="0" stopTime="0.00" timeLoss="7.98" rerouteNo="0" devices="tripinfo_17" vType="DEFAULT_VEHTYPE" speedFactor="0.92" vaporized=""/>
    <tripinfo id="40" depart="85.00" departLane="65746828#0_0" departPos="5.10" departSpeed="0.00" departDelay="0.29" arrival="126.00" arrivalLane="210831345#1_0" arrivalPos="264.29" arrivalSpeed="16.40" duration="41.00" routeLength="446.75" waitingTime="2.00" waitingCount="1" stopTime="0.00" timeLoss="14.56" rerouteNo="0" devices="tripinfo_40" vType="DEFAULT_VEHTYPE" speedFactor="1.24" vaporized=""/>
    <tripinfo id="16" depart="34.00" departLane="256961141#0_0" departPos="5.10" departSpeed="0.00" departDelay="0.12" arrival="147.00" arrivalLane="450554042#0_0" arrivalPos="622.66" arrivalSpeed="15.52" duration="113.00" routeLength="853.74" waitingTime="48.00" waitingCount="1" stopTime="0.00" timeLoss="58.11" rerouteNo="0" devices="tripinfo_16" vType="DEFAULT_VEHTYPE" speedFactor="1.00" vaporized=""/>
    <tripinfo id="2" depart="5.00" departLane="666135205#0_0" departPos="5.10" departSpeed="0.00" departDelay="0.76" arrival="162.00" arrivalLane="231177697#0_0" arrivalPos="74.44" arrivalSpeed="13.84" duration="157.00" routeLength="649.17" waitingTime="97.00" waitingCount="1" stopTime="0.00" timeLoss="108.41" rerouteNo="0" devices="tripinfo_2" vType="DEFAULT_VEHTYPE" speedFactor="1.01" vaporized=""/>
    <tripinfo id="61" depart="130.00" departLane="978867529_0" departPos="5.10" departSpeed="0.00" departDelay="0.82" arrival="168.00" arrivalLane="218680176#0_0" arrivalPos="98.94" arrivalSpeed="15.15" duration="38.00" routeLength="442.15" waitingTime="0.00" waitingCount="0" stopTime="0.00" timeLoss="12.04" rerouteNo="0" devices="tripinfo_61" vType="DEFAULT_VEHTYPE" speedFactor="1.13" vaporized=""/>
    <tripinfo id="12" depart="26.00" departLane="E8_0" departPos="5.10" departSpeed="0.00" departDelay="0.59" arrival="172.00" arrivalLane="210831347#0_1" arrivalPos="149.88" arrivalSpeed="11.77" duration="146.00" routeLength="1367.17" waitingTime="20.00" waitingCount="1" stopTime="0.00" timeLoss="36.67" rerouteNo="0" devices="tripinfo_12" vType="DEFAULT_VEHTYPE" speedFactor="0.87" vaporized=""/>
    <tripinfo id="29" depart="62.00" departLane="-226276377#1_0" departPos="5.10" departSpeed="0.00" departDelay="0.59" arrival="173.00" arrivalLane="210831347#0_1" arrivalPos="149.88" arrivalSpeed="13.66" duration="111.00" routeLength="888.52" waitingTime="30.00" waitingCount="2" stopTime="0.00" timeLoss="49.60" rerouteNo="0" devices="tripinfo_29" vType="DEFAULT_VEHTYPE" speedFactor="0.99" vaporized=""/>
    <tripinfo id="35" depart="75.00" departLane="-226276377#1_0" departPos="5.10" departSpeed="0.00" departDelay="0.88" arrival="174.00" arrivalLane="450554042#0_0" arrivalPos="622.66" arrivalSpeed="14.92" duration="99.00" routeLength="763.53" waitingTime="35.00" waitingCount="1" stopTime="0.00" timeLoss="46.14" rerouteNo="0" devices="tripinfo_35" vType="DEFAULT_VEHTYPE" speedFactor="0.92" vaporized=""/>
    <tripinfo id="11" depart="24.00" departLane="-661251539_0" departPos="5.10" departSpeed="0.00" departDelay="0.71" arrival="178.00" arrivalLane="153964138#0_1" arrivalPos="337.99" arrivalSpeed="16.46" duration="154.00" routeLength="1239.04" waitingTime="50.00" waitingCount="2" stopTime="0.00" timeLoss="70.60" rerouteNo="0" devices="tripinfo_11" vType="DEFAULT_VEHTYPE" speedFactor="1.03" vaporized=""/>
    <tripinfo id="22" depart="47.00" departLane="-218680176#1_0" departPos="5.10" departSpeed="0.00" departDelay="0.41" arrival="182.00" arrivalLane="210831345#1_0" arrivalPos="264.29" arrivalSpeed="10.84" duration="135.00" routeLength="699.94" waitingTime="60.00" waitingCount="2" stopTime="0.00" timeLoss="75.30" rerouteNo="0" devices="tripinfo_22" vType="DEFAULT_VEHTYPE" speedFactor="0.86" vaporized=""/>
    <tripinfo id="23" depart="50.00" departLane="-218680176#1_0" departPos="5.10" departSpeed="0.00" departDelay="1.29" arrival="183.00" arrivalLane="210831345#1_1" arrivalPos="264.29" arrivalSpeed="12.21" duration="133.00" routeLength="699.94" waitingTime="58.00" waitingCount="2" stopTime="0.00" timeLoss="77.40" rerouteNo="0" devices="tripinfo_23" vType="DEFAULT_VEHTYPE" speedFactor="0.93" vaporized=""/>
    <tripinfo id="27" depart="58.00" departLane="65746828#0_0" departPos="5.10" departSpeed="0.00" departDelay="0.82" arrival="191.00" arrivalLane="226276377#0_0" arrivalPos="135.52" arrivalSpeed="13.26" duration="133.00" routeLength="841.69" waitingTime="61.00" waitingCount="2" stopTime="0.00" timeLoss="78.03" rerouteNo="0" devices="tripinfo_27" vType="DEFAULT_VEHTYPE" speedFactor="1.01" vaporized=""/>
    <tripinfo id="51" depart="108.00" departLane="666135205#0_0" departPos="5.10" departSpeed="0.00" departDelay="0.00" arrival="191.00" arrivalLane="218680176#0_1" arrivalPos="98.94" arrivalSpeed="13.14" duration="83.00" routeLength="693.09" waitingTime="18.00" waitingCount="1" stopTime="0.00" timeLoss="30.37" rerouteNo="0" devices="tripinfo_51" vType="DEFAULT_VEHTYPE" speedFactor="0.99" vaporized=""/>
    <tripinfo id="54" depart="115.00" departLane="256961141#0_0" departPos="5.10" departSpeed="0.00" departDelay="0.65" arrival="196.00" arrivalLane="450554042#0_0" arrivalPos="622.66" arrivalSpeed="17.75" duration="81.00" routeLength="853.74" waitingTime="19.00" waitingCount="1" stopTime="0.00" timeLoss="29.41" rerouteNo="0" devices="tripinfo_54" vType="DEFAULT_VEHTYPE" speedFactor="1.07" vaporized=""/>
    <tripinfo id="36" depart="77.00" departLane="978867529_0" departPos="5.10" departSpeed="0.00" departDelay="0.76" arrival="201.00" arrivalLane="210831345#1_1" arrivalPos="264.29" arrivalSpeed="14.59" duration="124.00" routeLength="951.92" waitingTime="51.00" waitingCount="1" stopTime="0.00" timeLoss="63.32" rerouteNo="0" devices="tripinfo_36" vType="DEFAULT_VEHTYPE" speedFactor="1.09" vaporized=""/>
    <tripinfo id="55" depart="117.00" departLane="978867529_0" departPos="5.10" departSpeed="0.00" departDelay="0.53" arrival="212.00" arrivalLane="210831345#1_0" arrivalPos="264.29" arrivalSpeed="12.06" duration="95.00" routeLength="951.92" waitingTime="9.00" waitingCount="1" stopTime="0.00" timeLoss="21.63" rerouteNo="0" devices="tripinfo_55" vType="DEFAULT_VEHTYPE" speedFactor="0.90" vaporized=""/>
    <tripinfo id="46" depart="98.00" departLane="978867529_0" departPos="5.10" departSpeed="0.00" departDelay="0.59" arrival="220.00" arrivalLane="210831347#0_0" arrivalPos="149.88" arrivalSpeed="13.66" duration="122.00" routeLength="812.56" waitingTime="46.00" waitingCount="2" stopTime="0.00" timeLoss="66.06" rerouteNo="0" devices="tripinfo_46" vType="DEFAULT_VEHTYPE" speedFactor="1.01" vaporized=""/>
    <tripinfo id="41" depart="88.00" departLane="65746828#0_0" departPos="5.10" departSpeed="0.00" departDelay="1.18" arrival="226.00" arrivalLane="450554042#0_0" arrivalPos="622.66" arrivalSpeed="13.76" duration="138.00" routeLength="1340.72" waitingTime="26.00" waitingCount="2" stopTime="0.00" timeLoss="44.03" rerouteNo="0" devices="tripinfo_41" vType="DEFAULT_VEHTYPE" speedFactor="0.89" vaporized=""/>
    <tripinfo id="78" depart="166.00" departLane="-661251539_0" departPos="5.10" departSpeed="0.00" departDelay="0.82" arrival="228.00" arrivalLane="226276377#0_0" arrivalPos="135.52" arrivalSpeed="14.60" duration="62.00" routeLength="783.10" waitingTime="0.00" waitingCount="0" stopTime="0.00" timeLoss="10.47" rerouteNo="0" devices="tripinfo_78" vType="DEFAULT_VEHTYPE" speedFactor="1.07" vaporized=""/>
    <tripinfo id="6" depart="13.00" departLane="-218680176#1_0" departPos="5.10" departSpeed="0.00" departDelay="0.29" arrival="232.00" arrivalLane="153964138#0_1" arrivalPos="337.99" arrivalSpeed="13.64" duration="219.00" routeLength="462.27" waitingTime="176.00" waitingCount="1" stopTime="0.00" timeLoss="185.60" rerouteNo="0" devices="tripinfo_6" vType="DEFAULT_VEHTYPE" speedFactor="0.89" vaporized=""/>
    <tripinfo id="49" depart="105.00" departLane="E8_0" departPos="5.10" departSpeed="0.00" departDelay="1.24" arrival="239.00" arrivalLane="39907424_0" arrivalPos="316.44" arrivalSpeed="11.28" duration="134.00" routeLength="1303.68" waitingTime="12.00" waitingCount="1" stopTime="0.00" timeLoss="27.31" rerouteNo="0" devices="tripinfo_49" vType="DEFAULT_VEHTYPE" speedFactor="0.85" vaporized=""/>
    <tripinfo id="50" depart="106.00" departLane="-218680176#1_0" departPos="5.10" departSpeed="0.00" departDelay="0.12" arrival="240.00" arrivalLane="231177697#0_0" arrivalPos="74.44" arrivalSpeed="10.75" duration="134.00" routeLength="205.97" waitingTime="94.00" waitingCount="4" stopTime="0.00" timeLoss="116.11" rerouteNo="0" devices="tripinfo_50" vType="DEFAULT_VEHTYPE" speedFactor="0.85" vaporized=""/>
    <tripinfo id="57" depart="121.00" departLane="E8_0" departPos="5.10" departSpeed="0.00" departDelay="0.29" arrival="241.00" arrivalLane="39907424_0" arrivalPos="316.44" arrivalSpeed="12.44" duration="120.00" routeLength="1303.68" waitingTime="4.00" waitingCount="1" stopTime="0.00" timeLoss="25.38" rerouteNo="0" devices="tripinfo_57" vType="DEFAULT_VEHTYPE" speedFactor="0.96" vaporized=""/>
    <tripinfo id="74" depart="157.00" departLane="-226276377#1_0" departPos="5.10" departSpeed="0.00" departDelay="0.29" arrival="244.00" arrivalLane="210831345#1_0" arrivalPos="264.29" arrivalSpeed="11.95" duration="87.00" routeLength="977.93" waitingTime="0.00" waitingCount="0" stopTime="0.00" timeLoss="9.04" rerouteNo="0" devices="tripinfo_74" vType="DEFAULT_VEHTYPE" speedFactor="0.87" vaporized=""/>
    <tripinfo id="68" depart="144.00" departLane="-218680176#1_0" departPos="5.10" departSpeed="0.00" departDelay="0.00" arrival="246.00" arrivalLane="231177697#0_0" arrivalPos="74.44" arrivalSpeed="13.41" duration="102.00" routeLength="205.97" waitingTime="62.00" waitingCount="2" stopTime="0.00" timeLoss="86.76" rerouteNo="0" devices="tripinfo_68" vType="DEFAULT_VEHTYPE" speedFactor="1.03" vaporized=""/>
    <tripinfo id="64" depart="136.00" departLane="978867529_0" departPos="5.10" departSpeed="0.00" departDelay="0.47" arrival="248.00" arrivalLane="39907424_0" arrivalPos="316.44" arrivalSpeed="15.47" duration="112.00" routeLength="1216.15" waitingTime="19.00" waitingCount="1" stopTime="0.00" timeLoss="38.60" rerouteNo="0" devices="tripinfo_64" vType="DEFAULT_VEHTYPE" speedFactor="1.12" vaporized=""/>
    <tripinfo id="18" depart="39.00" departLane="978867529_0" departPos="5.10" departSpeed="0.00" departDelay="0.88" arrival="253.00" arrivalLane="226276377#0_0" arrivalPos="135.52" arrivalSpeed="14.55" duration="214.00" routeLength="1369.55" waitingTime="108.00" waitingCount="2" stopTime="0.00" timeLoss="132.63" rerouteNo="0" devices="tripinfo_18" vType="DEFAULT_VEHTYPE" speedFactor="1.10" vaporized=""/>
    <tripinfo id="79" depart="168.00" departLane="-231177697#2_0" departPos="5.10" departSpeed="0.00" departDelay="0.71" arrival="254.00" arrivalLane="153964138#0_0" arrivalPos="337.99" arrivalSpeed="14.43" duration="86.00" routeLength="417.38" waitingTime="43.00" waitingCount="2" stopTime="0.00" timeLoss="57.10" rerouteNo="0" devices="tripinfo_79" vType="DEFAULT_VEHTYPE" speedFactor="0.93" vaporized=""/>
    <tripinfo id="45" depart="97.00" departLane="-218680176#1_0" departPos="5.10" departSpeed="0.00" departDelay="1.71" arrival="255.00" arrivalLane="226276377#0_0" arrivalPos="135.52" arrivalSpeed="15.88" duration="158.00" routeLength="1117.57" waitingTime="64.00" waitingCount="4" stopTime="0.00" timeLoss="95.20" rerouteNo="0" devices="tripinfo_45" vType="DEFAULT_VEHTYPE" speedFactor="1.21" vaporized=""/>
    <tripinfo id="19" depart="42.00" departLane="978867529_0" departPos="5.10" departSpeed="0.00" departDelay="1.76" arrival="259.00" arrivalLane="226276377#0_0" arrivalPos="135.52" arrivalSpeed="13.84" duration="217.00" routeLength="1369.55" waitingTime="107.00" waitingCount="2" stopTime="0.00" timeLoss="130.56" rerouteNo="0" devices="tripinfo_19" vType="DEFAULT_VEHTYPE" speedFactor="1.04" vaporized=""/>
    <tripinfo id="28" depart="60.00" departLane="-226276377#1_0" departPos="5.10" departSpeed="0.00" departDelay="0.71" arrival="267.00" arrivalLane="231177697#0_0" arrivalPos="74.44" arrivalSpeed="12.51" duration="207.00" routeLength="1114.63" waitingTime="101.00" waitingCount="3" stopTime="0.00" timeLoss="126.15" rerouteNo="0" devices="tripinfo_28" vType="DEFAULT_VEHTYPE" speedFactor="0.96" vaporized=""/>
    <tripinfo id="30" depart="64.00" departLane="E8_0" departPos="5.10" departSpeed="0.00" departDelay="0.47" arrival="267.00" arrivalLane="226276377#0_1" arrivalPos="135.52" arrivalSpeed="15.02" duration="203.00" routeLength="784.51" waitingTime="142.00" waitingCount="1" stopTime="0.00" timeLoss="152.69" rerouteNo="0" devices="tripinfo_30" vType="DEFAULT_VEHTYPE" speedFactor="1.15" vaporized=""/>
    <tripinfo id="75" depart="159.00" departLane="E8_0" departPos="5.10" departSpeed="0.00" departDelay="0.18" arrival="269.00" arrivalLane="226276377#0_1" arrivalPos="135.52" arrivalSpeed="14.06" duration="110.00" routeLength="784.51" waitingTime="47.00" waitingCount="1" stopTime="0.00" timeLoss="58.07" rerouteNo="0" devices="tripinfo_75" vType="DEFAULT_VEHTYPE" speedFactor="1.10" vaporized=""/>
    <tripinfo id="90" depart="191.00" departLane="666135205#0_0" departPos="5.10" departSpeed="0.00" departDelay="0.41" arrival="269.00" arrivalLane="231177697#0_0" arrivalPos="74.44" arrivalSpeed="14.02" duration="78.00" routeLength="649.17" waitingTime="13.00" waitingCount="2" stopTime="0.00" timeLoss="32.77" rerouteNo="0" devices="tripinfo_90" vType="DEFAULT_VEHTYPE" speedFactor="1.07" vaporized=""/>
    <tripinfo id="91" depart="193.00" departLane="E8_0" departPos="5.10" departSpeed="0.00" departDelay="0.29" arrival="269.00" arrivalLane="-256961141#1_0" arrivalPos="204.72" arrivalSpeed="11.93" duration="76.00" routeLength="832.89" waitingTime="0.00" waitingCount="0" stopTime="0.00" timeLoss="8.31" rerouteNo="0" devices="tripinfo_91" vType="DEFAULT_VEHTYPE" speedFactor="0.90" vaporized=""/>
    <tripinfo id="4" depart="9.00" departLane="-661251539_0" departPos="5.10" departSpeed="0.00" departDelay="0.53" arrival="272.00" arrivalLane="-256961141#1_1" arrivalPos="204.72" arrivalSpeed="14.40" duration="263.00" routeLength="872.91" waitingTime="192.00" waitingCount="1" stopTime="0.00" timeLoss="204.95" rerouteNo="0" devices="tripinfo_4" vType="DEFAULT_VEHTYPE" speedFactor="1.05" vaporized=""/>
    <tripinfo id="85" depart="180.00" departLane="E8_0" departPos="5.10" departSpeed="0.00" departDelay="0.00" arrival="274.00" arrivalLane="226276377#0_1" arrivalPos="135.52" arrivalSpeed="11.59" duration="94.00" routeLength="784.51" waitingTime="14.00" waitingCount="1" stopTime="0.00" timeLoss="27.72" rerouteNo="0" devices="tripinfo_85" vType="DEFAULT_VEHTYPE" speedFactor="0.86" vaporized=""/>
    <tripinfo id="42" depart="89.00" departLane="-661251539_0" departPos="5.10" departSpeed="0.00" departDelay="0.06" arrival="279.00" arrivalLane="153964138#0_1" arrivalPos="337.99" arrivalSpeed="15.44" duration="190.00" routeLength="1239.04" waitingTime="75.00" waitingCount="3" stopTime="0.00" timeLoss="102.16" rerouteNo="0" devices="tripinfo_42" vType="DEFAULT_VEHTYPE" speedFactor="0.98" vaporized=""/>
    <tripinfo id="72" depart="153.00" departLane="-661251539_0" departPos="5.10" departSpeed="0.00" departDelay="0.53" arrival="279.00" arrivalLane="153964138#0_2" arrivalPos="337.99" arrivalSpeed="14.61" duration="126.00" routeLength="1239.04" waitingTime="14.00" waitingCount="1" stopTime="0.00" timeLoss="36.48" rerouteNo="0" devices="tripinfo_72" vType="DEFAULT_VEHTYPE" speedFactor="0.95" vaporized=""/>
    <tripinfo id="20" depart="43.00" departLane="666135205#0_0" departPos="5.10" departSpeed="0.00" departDelay="0.65" arrival="280.00" arrivalLane="-256961141#1_0" arrivalPos="204.72" arrivalSpeed="15.05" duration="237.00" routeLength="1068.72" waitingTime="154.00" waitingCount="1" stopTime="0.00" timeLoss="172.14" rerouteNo="0" devices="tripinfo_20" vType="DEFAULT_VEHTYPE" speedFactor="1.11" vaporized=""/>
    <tripinfo id="69" depart="147.00" departLane="666135205#0_0" departPos="5.10" departSpeed="0.00" departDelay="0.88" arrival="280.00" arrivalLane="153964138#0_0" arrivalPos="337.99" arrivalSpeed="14.73" duration="133.00" routeLength="924.87" waitingTime="41.00" waitingCount="2" stopTime="0.00" timeLoss="62.83" rerouteNo="0" devices="tripinfo_69" vType="DEFAULT_VEHTYPE" speedFactor="0.91" vaporized=""/>
    <tripinfo id="0" depart="0.00" departLane="65746828#0_0" departPos="5.10" departSpeed="0.00" departDelay="0.00" arrival="282.00" arrivalLane="-256961141#1_0" arrivalPos="204.72" arrivalSpeed="9.09" duration="282.00" routeLength="931.50" waitingTime="180.00" waitingCount="2" stopTime="0.00" timeLoss="195.85" rerouteNo="0" devices="tripinfo_0" vType="DEFAULT_VEHTYPE" speedFactor="0.72" vaporized=""/>
    <tripinfo id="13" depart="28.00" departLane="-218680176#1_0" departPos="5.10" departSpeed="0.00" departDelay="0.47" arrival="282.00" arrivalLane="-256961141#1_1" arrivalPos="204.72" arrivalSpeed="13.78" duration="254.00" routeLength="1207.38" waitingTime="151.00" waitingCount="2" stopTime="0.00" timeLoss="176.23" rerouteNo="0" devices="tripinfo_13" vType="DEFAULT_VEHTYPE" speedFactor="1.05" vaporized=""/>
    <tripinfo id="56" depart="119.00" departLane="256961141#0_0" departPos="5.10" departSpeed="0.00" departDelay="0.41" arrival="282.00" arrivalLane="153964138#0_1" arrivalPos="337.99" arrivalSpeed="14.92" duration="163.00" routeLength="1439.25" waitingTime="37.00" waitingCount="2" stopTime="0.00" timeLoss="59.30" rerouteNo="0" devices="tripinfo_56" vType="DEFAULT_VEHTYPE" speedFactor="0.93" vaporized=""/>
    <tripinfo id="25" depart="53.00" departLane="-661251539_0" departPos="5.10" departSpeed="0.00" departDelay="0.06" arrival="283.00" arrivalLane="153964138#0_0" arrivalPos="337.99" arrivalSpeed="13.79" duration="230.00" routeLength="1239.04" waitingTime="114.00" waitingCount="2" stopTime="0.00" timeLoss="131.58" rerouteNo="0" devices="tripinfo_25" vType="DEFAULT_VEHTYPE" speedFactor="0.87" vaporized=""/>
    <tripinfo id="44" depart="94.00" departLane="-218680176#1_0" departPos="5.10" departSpeed="0.00" departDelay="0.82" arrival="284.00" arrivalLane="-256961141#1_1" arrivalPos="204.72" arrivalSpeed="12.39" duration="190.00" routeLength="1207.38" waitingTime="78.00" waitingCount="3" stopTime="0.00" timeLoss="106.33" rerouteNo="0" devices="tripinfo_44" vType="DEFAULT_VEHTYPE" speedFactor="0.98" vaporized=""/>
    <tripinfo id="9" depart="20.00" departLane="978867529_0" departPos="5.10" departSpeed="0.00" departDelay="0.94" arrival="286.00" arrivalLane="-256961141#1_1" arrivalPos="204.72" arrivalSpeed="13.34" duration="266.00" routeLength="1459.36" waitingTime="138.00" waitingCount="3" stopTime="0.00" timeLoss="172.29" rerouteNo="0" devices="tripinfo_9" vType="DEFAULT_VEHTYPE" speedFactor="1.03" vaporized=""/>
    <tripinfo id="31" depart="66.00" departLane="65746828#0_0" departPos="5.10" departSpeed="0.00" departDelay="0.35" arrival="288.00" arrivalLane="231177697#0_0" arrivalPos="74.44" arrivalSpeed="14.30" duration="222.00" routeLength="558.79" waitingTime="170.00" waitingCount="1" stopTime="0.00" timeLoss="181.85" rerouteNo="0" devices="tripinfo_31" vType="DEFAULT_VEHTYPE" speedFactor="1.05" vaporized=""/>
    <tripinfo id="103" depart="219.00" departLane="-661251539_0" departPos="5.10" departSpeed="0.00" departDelay="0.88" arrival="288.00" arrivalLane="-256961141#1_1" arrivalPos="204.72" arrivalSpeed="13.09" duration="69.00" routeLength="872.91" waitingTime="0.00" waitingCount="0" stopTime="0.00" timeLoss="9.67" rerouteNo="0" devices="tripinfo_103" vType="DEFAULT_VEHTYPE" speedFactor="1.03" vaporized=""/>
    <tripinfo id="108" depart="229.00" departLane="65746828#0_0" departPos="5.10" departSpeed="0.00" departDelay="0.29" arrival="291.00" arrivalLane="231177697#0_0" arrivalPos="74.44" arrivalSpeed="13.94" duration="62.00" routeLength="558.79" waitingTime="10.00" waitingCount="1" stopTime="0.00" timeLoss="23.35" rerouteNo="0" devices="tripinfo_108" vType="DEFAULT_VEHTYPE" speedFactor="1.07" vaporized=""/>
    <tripinfo id="14" depart="30.00" departLane="978867529_0" departPos="5.10" departSpeed="0.00" departDelay="0.35" arrival="292.00" arrivalLane="226276377#0_0" arrivalPos="135.52" arrivalSpeed="11.58" duration="262.00" routeLength="1369.55" waitingTime="139.00" waitingCount="3" stopTime="0.00" timeLoss="164.51" rerouteNo="0" devices="tripinfo_14" vType="DEFAULT_VEHTYPE" speedFactor="0.92" vaporized=""/>
    <tripinfo id="66" depart="140.00" departLane="978867529_0" departPos="5.10" departSpeed="0.00" departDelay="0.24" arrival="294.00" arrivalLane="450554042#0_0" arrivalPos="622.66" arrivalSpeed="14.37" duration="154.00" routeLength="1868.58" waitingTime="9.00" waitingCount="1" stopTime="0.00" timeLoss="24.62" rerouteNo="0" devices="tripinfo_66" vType="DEFAULT_VEHTYPE" speedFactor="0.90" vaporized=""/>
    <tripinfo id="59" depart="125.00" departLane="65746828#0_0" departPos="5.10" departSpeed="0.00" departDelay="0.06" arrival="303.00" arrivalLane="153964138#0_1" arrivalPos="337.99" arrivalSpeed="16.91" duration="178.00" routeLength="834.49" waitingTime="112.00" waitingCount="1" stopTime="0.00" timeLoss="124.18" rerouteNo="0" devices="tripinfo_59" vType="DEFAULT_VEHTYPE" speedFactor="1.04" vaporized=""/>
    <tripinfo id="114" depart="242.00" departLane="-226276377#1_0" departPos="5.10" departSpeed="0.00" departDelay="0.59" arrival="317.00" arrivalLane="450554042#0_0" arrivalPos="622.66" arrivalSpeed="15.10" duration="75.00" routeLength="763.53" waitingTime="16.00" waitingCount="1" stopTime="0.00" timeLoss="24.65" rerouteNo="0" devices="tripinfo_114" vType="DEFAULT_VEHTYPE" speedFactor="0.97" vaporized=""/>
    <tripinfo id="104" depart="222.00" departLane="-661251539_0" departPos="5.10" departSpeed="0.00" departDelay="1.76" arrival="320.00" arrivalLane="450554042#0_0" arrivalPos="622.66" arrivalSpeed="16.79" duration="98.00" routeLength="1282.13" waitingTime="3.00" waitingCount="1" stopTime="0.00" timeLoss="18.12" rerouteNo="0" devices="tripinfo_104" vType="DEFAULT_VEHTYPE" speedFactor="1.03" vaporized=""/>
    <tripinfo id="53" depart="113.00" departLane="-226276377#1_0" departPos="5.10" departSpeed="0.00" departDelay="0.76" arrival="322.00" arrivalLane="210831347#0_1" arrivalPos="149.88" arrivalSpeed="11.25" duration="209.00" routeLength="888.52" waitingTime="118.00" waitingCount="2" stopTime="0.00" timeLoss="135.80" rerouteNo="0" devices="tripinfo_53" vType="DEFAULT_VEHTYPE" speedFactor="0.84" vaporized=""/>
    <tripinfo id="92" depart="195.00" departLane="-661251539_0" departPos="5.10" departSpeed="0.00" departDelay="0.18" arrival="323.00" arrivalLane="210831347#0_1" arrivalPos="149.88" arrivalSpeed="12.15" duration="128.00" routeLength="731.18" waitingTime="54.00" waitingCount="2" stopTime="0.00" timeLoss="71.88" rerouteNo="0" devices="tripinfo_92" vType="DEFAULT_VEHTYPE" speedFactor="0.95" vaporized=""/>
    <tripinfo id="1" depart="3.00" departLane="-231177697#2_0" departPos="5.10" departSpeed="0.00" departDelay="0.88" arrival="329.00" arrivalLane="210831345#1_1" arrivalPos="264.29" arrivalSpeed="13.35" duration="326.00" routeLength="696.92" waitingTime="259.00" waitingCount="2" stopTime="0.00" timeLoss="273.15" rerouteNo="0" devices="tripinfo_1" vType="DEFAULT_VEHTYPE" speedFactor="0.97" vaporized=""/>
    <tripinfo id="115" depart="244.00" departLane="-218680176#1_0" departPos="5.10" departSpeed="0.00" departDelay="0.47" arrival="329.00" arrivalLane="153964138#0_2" arrivalPos="337.99" arrivalSpeed="16.38" duration="85.00" routeLength="462.27" waitingTime="45.00" waitingCount="1" stopTime="0.00" timeLoss="55.48" rerouteNo="0" devices="tripinfo_115" vType="DEFAULT_VEHTYPE" speedFactor="1.01" vaporized=""/>
    <tripinfo id="21" depart="45.00" departLane="-231177697#2_0" departPos="5.10" departSpeed="0.00" departDelay="0.53" arrival="331.00" arrivalLane="210831345#1_1" arrivalPos="264.29" arrivalSpeed="13.06" duration="286.00" routeLength="696.92" waitingTime="216.00" waitingCount="2" stopTime="0.00" timeLoss="235.36" rerouteNo="0" devices="tripinfo_21" vType="DEFAULT_VEHTYPE" speedFactor="1.02" vaporized=""/>
    <tripinfo id="128" depart="272.00" departLane="-218680176#1_0" departPos="5.10" departSpeed="0.00" departDelay="0.94" arrival="331.00" arrivalLane="153964138#0_2" arrivalPos="337.99" arrivalSpeed="16.35" duration="59.00" routeLength="462.27" waitingTime="17.00" waitingCount="1" stopTime="0.00" timeLoss="29.82" rerouteNo="0" devices="tripinfo_128" vType="DEFAULT_VEHTYPE" speedFactor="1.03" vaporized=""/>
    <tripinfo id="34" depart="72.00" departLane="-231177697#2_0" departPos="5.10" departSpeed="0.00" departDelay="0.00" arrival="333.00" arrivalLane="210831345#1_1" arrivalPos="264.29" arrivalSpeed="14.59" duration="261.00" routeLength="696.92" waitingTime="187.00" waitingCount="3" stopTime="0.00" timeLoss="214.05" rerouteNo="0" devices="tripinfo_34" vType="DEFAULT_VEHTYPE" speedFactor="1.10" vaporized=""/>
    <tripinfo id="39" depart="83.00" departLane="-231177697#2_0" departPos="5.10" departSpeed="0.00" departDelay="0.41" arrival="334.00" arrivalLane="210831345#1_1" arrivalPos="264.29" arrivalSpeed="15.19" duration="251.00" routeLength="696.92" waitingTime="179.00" waitingCount="2" stopTime="0.00" timeLoss="204.69" rerouteNo="0" devices="tripinfo_39" vType="DEFAULT_VEHTYPE" speedFactor="1.10" vaporized=""/>
    <tripinfo id="99" depart="210.00" departLane="E8_0" departPos="5.10" departSpeed="0.00" departDelay="0.35" arrival="334.00" arrivalLane="39907424_0" arrivalPos="316.44" arrivalSpeed="11.99" duration="124.00" routeLength="1303.68" waitingTime="10.00" waitingCount="1" stopTime="0.00" timeLoss="24.55" rerouteNo="0" devices="tripinfo_99" vType="DEFAULT_VEHTYPE" speedFactor="0.91" vaporized=""/>