<?xml version="1.0" encoding="UTF-8"?>

<!-- generated on 2024-09-02 16:13:48 by Eclipse SUMO sumo Version 1.20.0
<configuration xmlns:xsi="http://www.w3.org/2001/XMLSchema-instance" xsi:noNamespaceSchemaLocation="http://sumo.dlr.de/xsd/sumoConfiguration.xsd">

    <input>
        <net-file value="c:\self\School\Master\Disertation\code\RESCO\resco_benchmark\environments/unirii/osm.net.xml.gz"/>
        <route-files value="c:\self\School\Master\Disertation\code\RESCO\resco_benchmark\environments/unirii/osm.passenger.trips.xml"/>
        <additional-files value="c:\self\School\Master\Disertation\code\RESCO\resco_benchmark\environments/unirii/osm.poly.xml.gz"/>
    </input>

    <output>
        <tripinfo-output value="C:\self\School\Master\Disertation\code\RESCO\results\IPPO-tr0-unirii-0-drq_norm-wait_norm\tripinfo_20.xml"/>
        <tripinfo-output.write-unfinished value="true"/>
    </output>

    <processing>
        <ignore-route-errors value="true"/>
        <time-to-teleport value="-1"/>
    </processing>

    <routing>
        <device.rerouting.adaptation-steps value="18"/>
        <device.rerouting.adaptation-interval value="10"/>
    </routing>

    <report>
        <verbose value="true"/>
        <no-warnings value="True"/>
        <duration-log.statistics value="true"/>
        <no-step-log value="True"/>
    </report>

    <traci_server>
        <remote-port value="63964"/>
    </traci_server>

    <random_number>
        <random value="true"/>
    </random_number>

    <gui_only>
        <gui-settings-file value="c:\self\School\Master\Disertation\code\RESCO\resco_benchmark\environments/unirii/osm.view.xml"/>
    </gui_only>

</configuration>
-->

<tripinfos xmlns:xsi="http://www.w3.org/2001/XMLSchema-instance" xsi:noNamespaceSchemaLocation="http://sumo.dlr.de/xsd/tripinfo_file.xsd">
    <tripinfo id="6" depart="13.00" departLane="-218680176#1_0" departPos="5.10" departSpeed="0.00" departDelay="0.29" arrival="55.00" arrivalLane="153964138#0_2" arrivalPos="337.99" arrivalSpeed="15.51" duration="42.00" routeLength="462.27" waitingTime="1.00" waitingCount="1" stopTime="0.00" timeLoss="10.45" rerouteNo="0" devices="tripinfo_6" vType="DEFAULT_VEHTYPE" speedFactor="0.94" vaporized=""/>
    <tripinfo id="16" depart="34.00" departLane="256961141#0_0" departPos="5.10" departSpeed="0.00" departDelay="0.12" arrival="92.00" arrivalLane="450554042#0_1" arrivalPos="622.66" arrivalSpeed="17.77" duration="58.00" routeLength="853.74" waitingTime="0.00" waitingCount="0" stopTime="0.00" timeLoss="7.21" rerouteNo="0" devices="tripinfo_16" vType="DEFAULT_VEHTYPE" speedFactor="1.07" vaporized=""/>
    <tripinfo id="3" depart="7.00" departLane="E8_0" departPos="5.10" departSpeed="0.00" departDelay="0.65" arrival="98.00" arrivalLane="-256961141#1_0" arrivalPos="204.72" arrivalSpeed="11.82" duration="91.00" routeLength="832.89" waitingTime="15.00" waitingCount="1" stopTime="0.00" timeLoss="24.83" rerouteNo="0" devices="tripinfo_3" vType="DEFAULT_VEHTYPE" speedFactor="0.92" vaporized=""/>
    <tripinfo id="4" depart="9.00" departLane="-661251539_0" departPos="5.10" departSpeed="0.00" departDelay="0.53" arrival="123.00" arrivalLane="-256961141#1_1" arrivalPos="204.72" arrivalSpeed="13.73" duration="114.00" routeLength="872.91" waitingTime="42.00" waitingCount="1" stopTime="0.00" timeLoss="54.06" rerouteNo="0" devices="tripinfo_4" vType="DEFAULT_VEHTYPE" speedFactor="1.01" vaporized=""/>
    <tripinfo id="30" depart="64.00" departLane="E8_0" departPos="5.10" departSpeed="0.00" departDelay="0.47" arrival="123.00" arrivalLane="226276377#0_1" arrivalPos="135.52" arrivalSpeed="14.06" duration="59.00" routeLength="784.51" waitingTime="0.00" waitingCount="0" stopTime="0.00" timeLoss="5.52" rerouteNo="0" devices="tripinfo_30" vType="DEFAULT_VEHTYPE" speedFactor="1.07" vaporized=""/>
    <tripinfo id="40" depart="85.00" departLane="65746828#0_0" departPos="5.10" departSpeed="0.00" departDelay="0.29" arrival="124.00" arrivalLane="210831345#1_0" arrivalPos="264.29" arrivalSpeed="12.87" duration="39.00" routeLength="446.75" waitingTime="0.00" waitingCount="0" stopTime="0.00" timeLoss="4.38" rerouteNo="0" devices="tripinfo_40" vType="DEFAULT_VEHTYPE" speedFactor="0.93" vaporized=""/>
    <tripinfo id="0" depart="0.00" departLane="65746828#0_0" departPos="5.10" departSpeed="0.00" departDelay="0.00" arrival="125.00" arrivalLane="-256961141#1_1" arrivalPos="204.72" arrivalSpeed="14.39" duration="125.00" routeLength="931.50" waitingTime="46.00" waitingCount="2" stopTime="0.00" timeLoss="67.07" rerouteNo="0" devices="tripinfo_0" vType="DEFAULT_VEHTYPE" speedFactor="1.09" vaporized=""/>
    <tripinfo id="20" depart="43.00" departLane="666135205#0_0" departPos="5.10" departSpeed="0.00" departDelay="0.65" arrival="126.00" arrivalLane="-256961141#1_1" arrivalPos="204.72" arrivalSpeed="14.47" duration="83.00" routeLength="1068.72" waitingTime="6.00" waitingCount="1" stopTime="0.00" timeLoss="19.90" rerouteNo="0" devices="tripinfo_20" vType="DEFAULT_VEHTYPE" speedFactor="1.13" vaporized=""/>
    <tripinfo id="50" depart="106.00" departLane="-218680176#1_0" departPos="5.10" departSpeed="0.00" departDelay="0.12" arrival="128.00" arrivalLane="231177697#0_0" arrivalPos="74.44" arrivalSpeed="13.92" duration="22.00" routeLength="205.97" waitingTime="0.00" waitingCount="0" stopTime="0.00" timeLoss="7.02" rerouteNo="0" devices="tripinfo_50" vType="DEFAULT_VEHTYPE" speedFactor="1.02" vaporized=""/>
    <tripinfo id="10" depart="23.00" departLane="978867529_0" departPos="5.10" departSpeed="0.00" departDelay="1.82" arrival="163.00" arrivalLane="231177697#0_1" arrivalPos="74.44" arrivalSpeed="12.30" duration="140.00" routeLength="437.06" waitingTime="102.00" waitingCount="1" stopTime="0.00" timeLoss="110.14" rerouteNo="0" devices="tripinfo_10" vType="DEFAULT_VEHTYPE" speedFactor="0.95" vaporized=""/>
    <tripinfo id="7" depart="15.00" departLane="65746828#0_0" departPos="5.10" departSpeed="0.00" departDelay="0.18" arrival="164.00" arrivalLane="218680176#0_1" arrivalPos="98.94" arrivalSpeed="14.90" duration="149.00" routeLength="602.71" waitingTime="95.00" waitingCount="2" stopTime="0.00" timeLoss="108.92" rerouteNo="0" devices="tripinfo_7" vType="DEFAULT_VEHTYPE" speedFactor="1.10" vaporized=""/>
    <tripinfo id="35" depart="75.00" departLane="-226276377#1_0" departPos="5.10" departSpeed="0.00" departDelay="0.88" arrival="165.00" arrivalLane="450554042#0_0" arrivalPos="622.66" arrivalSpeed="16.05" duration="90.00" routeLength="763.53" waitingTime="32.00" waitingCount="1" stopTime="0.00" timeLoss="41.66" rerouteNo="0" devices="tripinfo_35" vType="DEFAULT_VEHTYPE" speedFactor="0.99" vaporized=""/>
    <tripinfo id="15" depart="33.00" departLane="978867529_0" departPos="5.10" departSpeed="0.00" departDelay="1.24" arrival="166.00" arrivalLane="231177697#0_1" arrivalPos="74.44" arrivalSpeed="10.91" duration="133.00" routeLength="437.06" waitingTime="91.00" waitingCount="1" stopTime="0.00" timeLoss="99.84" rerouteNo="0" devices="tripinfo_15" vType="DEFAULT_VEHTYPE" speedFactor="0.86" vaporized=""/>
    <tripinfo id="17" depart="36.00" departLane="-661251539_0" departPos="5.10" departSpeed="0.00" departDelay="0.00" arrival="166.00" arrivalLane="218680176#0_1" arrivalPos="98.94" arrivalSpeed="14.46" duration="130.00" routeLength="1001.21" waitingTime="41.00" waitingCount="2" stopTime="0.00" timeLoss="60.89" rerouteNo="0" devices="tripinfo_17" vType="DEFAULT_VEHTYPE" speedFactor="1.06" vaporized=""/>
    <tripinfo id="27" depart="58.00" departLane="65746828#0_0" departPos="5.10" departSpeed="0.00" departDelay="0.82" arrival="167.00" arrivalLane="226276377#0_0" arrivalPos="135.52" arrivalSpeed="13.13" duration="109.00" routeLength="841.69" waitingTime="35.00" waitingCount="2" stopTime="0.00" timeLoss="51.03" rerouteNo="0" devices="tripinfo_27" vType="DEFAULT_VEHTYPE" speedFactor="0.97" vaporized=""/>
    <tripinfo id="32" depart="68.00" departLane="978867529_0" departPos="5.10" departSpeed="0.00" departDelay="0.24" arrival="168.00" arrivalLane="231177697#0_1" arrivalPos="74.44" arrivalSpeed="12.33" duration="100.00" routeLength="437.06" waitingTime="58.00" waitingCount="1" stopTime="0.00" timeLoss="69.82" rerouteNo="0" devices="tripinfo_32" vType="DEFAULT_VEHTYPE" speedFactor="0.95" vaporized=""/>
    <tripinfo id="5" depart="11.00" departLane="-226276377#1_0" departPos="5.10" departSpeed="0.00" departDelay="0.41" arrival="170.00" arrivalLane="218680176#0_1" arrivalPos="98.94" arrivalSpeed="12.80" duration="159.00" routeLength="1158.55" waitingTime="50.00" waitingCount="3" stopTime="0.00" timeLoss="74.58" rerouteNo="0" devices="tripinfo_5" vType="DEFAULT_VEHTYPE" speedFactor="0.96" vaporized=""/>
    <tripinfo id="51" depart="108.00" departLane="666135205#0_0" departPos="5.10" departSpeed="0.00" departDelay="0.00" arrival="172.00" arrivalLane="218680176#0_1" arrivalPos="98.94" arrivalSpeed="11.86" duration="64.00" routeLength="693.09" waitingTime="0.00" waitingCount="0" stopTime="0.00" timeLoss="9.40" rerouteNo="0" devices="tripinfo_51" vType="DEFAULT_VEHTYPE" speedFactor="0.94" vaporized=""/>
    <tripinfo id="47" depart="100.00" departLane="-218680176#1_0" departPos="5.10" departSpeed="0.00" departDelay="0.47" arrival="194.00" arrivalLane="210831347#0_0" arrivalPos="149.88" arrivalSpeed="15.49" duration="94.00" routeLength="560.58" waitingTime="33.00" waitingCount="1" stopTime="0.00" timeLoss="57.30" rerouteNo="0" devices="tripinfo_47" vType="DEFAULT_VEHTYPE" speedFactor="1.14" vaporized=""/>
    <tripinfo id="26" depart="56.00" departLane="-231177697#2_0" departPos="5.10" departSpeed="0.00" departDelay="0.94" arrival="198.00" arrivalLane="450554042#0_0" arrivalPos="622.66" arrivalSpeed="15.39" duration="142.00" routeLength="1613.58" waitingTime="19.00" waitingCount="2" stopTime="0.00" timeLoss="34.99" rerouteNo="0" devices="tripinfo_26" vType="DEFAULT_VEHTYPE" speedFactor="0.97" vaporized=""/>
    <tripinfo id="49" depart="105.00" departLane="E8_0" departPos="5.10" departSpeed="0.00" departDelay="1.24" arrival="204.00" arrivalLane="39907424_0" arrivalPos="316.44" arrivalSpeed="14.30" duration="99.00" routeLength="1303.68" waitingTime="0.00" waitingCount="0" stopTime="0.00" timeLoss="10.68" rerouteNo="0" devices="tripinfo_49" vType="DEFAULT_VEHTYPE" speedFactor="1.03" vaporized=""/>
    <tripinfo id="41" depart="88.00" departLane="65746828#0_0" departPos="5.10" departSpeed="0.00" departDelay="1.18" arrival="206.00" arrivalLane="450554042#0_0" arrivalPos="622.66" arrivalSpeed="16.34" duration="118.00" routeLength="1340.72" waitingTime="23.00" waitingCount="1" stopTime="0.00" timeLoss="34.71" rerouteNo="0" devices="tripinfo_41" vType="DEFAULT_VEHTYPE" speedFactor="1.00" vaporized=""/>
    <tripinfo id="2" depart="5.00" departLane="666135205#0_0" departPos="5.10" departSpeed="0.00" departDelay="0.76" arrival="212.00" arrivalLane="231177697#0_0" arrivalPos="74.44" arrivalSpeed="11.96" duration="207.00" routeLength="649.17" waitingTime="140.00" waitingCount="1" stopTime="0.00" timeLoss="151.96" rerouteNo="0" devices="tripinfo_2" vType="DEFAULT_VEHTYPE" speedFactor="0.87" vaporized=""/>
    <tripinfo id="61" depart="130.00" departLane="978867529_0" departPos="5.10" departSpeed="0.00" departDelay="0.82" arrival="218.00" arrivalLane="218680176#0_0" arrivalPos="98.94" arrivalSpeed="13.90" duration="88.00" routeLength="442.15" waitingTime="50.00" waitingCount="1" stopTime="0.00" timeLoss="60.88" rerouteNo="0" devices="tripinfo_61" vType="DEFAULT_VEHTYPE" speedFactor="1.08" vaporized=""/>
    <tripinfo id="11" depart="24.00" departLane="-661251539_0" departPos="5.10" departSpeed="0.00" departDelay="0.71" arrival="229.00" arrivalLane="153964138#0_1" arrivalPos="337.99" arrivalSpeed="14.96" duration="205.00" routeLength="1239.04" waitingTime="98.00" waitingCount="2" stopTime="0.00" timeLoss="116.27" rerouteNo="0" devices="tripinfo_11" vType="DEFAULT_VEHTYPE" speedFactor="0.96" vaporized=""/>
    <tripinfo id="69" depart="147.00" departLane="666135205#0_0" departPos="5.10" departSpeed="0.00" departDelay="0.88" arrival="229.00" arrivalLane="153964138#0_2" arrivalPos="337.99" arrivalSpeed="15.56" duration="82.00" routeLength="924.87" waitingTime="2.00" waitingCount="1" stopTime="0.00" timeLoss="15.30" rerouteNo="0" devices="tripinfo_69" vType="DEFAULT_VEHTYPE" speedFactor="0.95" vaporized=""/>
    <tripinfo id="56" depart="119.00" departLane="256961141#0_0" departPos="5.10" departSpeed="0.00" departDelay="0.41" arrival="230.00" arrivalLane="153964138#0_0" arrivalPos="337.99" arrivalSpeed="18.40" duration="111.00" routeLength="1439.25" waitingTime="3.00" waitingCount="1" stopTime="0.00" timeLoss="25.20" rerouteNo="0" devices="tripinfo_56" vType="DEFAULT_VEHTYPE" speedFactor="1.12" vaporized=""/>
    <tripinfo id="25" depart="53.00" departLane="-661251539_0" departPos="5.10" departSpeed="0.00" departDelay="0.06" arrival="232.00" arrivalLane="153964138#0_0" arrivalPos="337.99" arrivalSpeed="14.66" duration="179.00" routeLength="1239.04" waitingTime="68.00" waitingCount="1" stopTime="0.00" timeLoss="88.39" rerouteNo="0" devices="tripinfo_25" vType="DEFAULT_VEHTYPE" speedFactor="0.94" vaporized=""/>
    <tripinfo id="57" depart="121.00" departLane="E8_0" departPos="5.10" departSpeed="0.00" departDelay="0.29" arrival="232.00" arrivalLane="39907424_0" arrivalPos="316.44" arrivalSpeed="12.41" duration="111.00" routeLength="1303.68" waitingTime="3.00" waitingCount="1" stopTime="0.00" timeLoss="16.58" rerouteNo="0" devices="tripinfo_57" vType="DEFAULT_VEHTYPE" speedFactor="0.97" vaporized=""/>
    <tripinfo id="42" depart="89.00" departLane="-661251539_0" departPos="5.10" departSpeed="0.00" departDelay="0.06" arrival="233.00" arrivalLane="153964138#0_1" arrivalPos="337.99" arrivalSpeed="15.16" duration="144.00" routeLength="1239.04" waitingTime="35.00" waitingCount="2" stopTime="0.00" timeLoss="53.98" rerouteNo="0" devices="tripinfo_42" vType="DEFAULT_VEHTYPE" speedFactor="0.95" vaporized=""/>
    <tripinfo id="72" depart="153.00" departLane="-661251539_0" departPos="5.10" departSpeed="0.00" departDelay="0.53" arrival="241.00" arrivalLane="153964138#0_0" arrivalPos="337.99" arrivalSpeed="18.34" duration="88.00" routeLength="1239.04" waitingTime="2.00" waitingCount="1" stopTime="0.00" timeLoss="14.47" rerouteNo="0" devices="tripinfo_72" vType="DEFAULT_VEHTYPE" speedFactor="1.17" vaporized=""/>
    <tripinfo id="60" depart="128.00" departLane="666135205#0_0" departPos="5.10" departSpeed="0.00" departDelay="0.94" arrival="242.00" arrivalLane="218680176#0_1" arrivalPos="98.94" arrivalSpeed="12.23" duration="114.00" routeLength="693.09" waitingTime="43.00" waitingCount="1" stopTime="0.00" timeLoss="55.55" rerouteNo="0" devices="tripinfo_60" vType="DEFAULT_VEHTYPE" speedFactor="0.88" vaporized=""/>
    <tripinfo id="38" depart="81.00" departLane="E8_0" departPos="5.10" departSpeed="0.00" departDelay="0.53" arrival="243.00" arrivalLane="218680176#0_1" arrivalPos="98.94" arrivalSpeed="14.27" duration="162.00" routeLength="1637.20" waitingTime="34.00" waitingCount="2" stopTime="0.00" timeLoss="55.80" rerouteNo="0" devices="tripinfo_38" vType="DEFAULT_VEHTYPE" speedFactor="1.08" vaporized=""/>
    <tripinfo id="43" depart="92.00" departLane="E8_0" departPos="5.10" departSpeed="0.00" departDelay="0.94" arrival="245.00" arrivalLane="218680176#0_1" arrivalPos="98.94" arrivalSpeed="15.93" duration="153.00" routeLength="1637.20" waitingTime="28.00" waitingCount="2" stopTime="0.00" timeLoss="54.88" rerouteNo="0" devices="tripinfo_43" vType="DEFAULT_VEHTYPE" speedFactor="1.17" vaporized=""/>
    <tripinfo id="12" depart="26.00" departLane="E8_0" departPos="5.10" departSpeed="0.00" departDelay="0.59" arrival="246.00" arrivalLane="210831347#0_1" arrivalPos="149.88" arrivalSpeed="12.01" duration="220.00" routeLength="1367.17" waitingTime="100.00" waitingCount="1" stopTime="0.00" timeLoss="113.07" rerouteNo="0" devices="tripinfo_12" vType="DEFAULT_VEHTYPE" speedFactor="0.89" vaporized=""/>
    <tripinfo id="48" depart="102.00" departLane="E8_0" departPos="5.10" departSpeed="0.00" departDelay="0.35" arrival="247.00" arrivalLane="218680176#0_1" arrivalPos="98.94" arrivalSpeed="13.22" duration="145.00" routeLength="1637.20" waitingTime="12.00" waitingCount="2" stopTime="0.00" timeLoss="34.71" rerouteNo="0" devices="tripinfo_48" vType="DEFAULT_VEHTYPE" speedFactor="1.04" vaporized=""/>
    <tripinfo id="71" depart="151.00" departLane="-231177697#2_0" departPos="5.10" departSpeed="0.00" departDelay="0.65" arrival="248.00" arrivalLane="39907424_0" arrivalPos="316.44" arrivalSpeed="13.45" duration="97.00" routeLength="961.15" waitingTime="14.00" waitingCount="1" stopTime="0.00" timeLoss="29.47" rerouteNo="0" devices="tripinfo_71" vType="DEFAULT_VEHTYPE" speedFactor="1.00" vaporized=""/>
    <tripinfo id="76" depart="161.00" departLane="-661251539_0" departPos="5.10" departSpeed="0.00" departDelay="0.06" arrival="248.00" arrivalLane="218680176#0_1" arrivalPos="98.94" arrivalSpeed="14.64" duration="87.00" routeLength="1001.21" waitingTime="6.00" waitingCount="1" stopTime="0.00" timeLoss="22.52" rerouteNo="0" devices="tripinfo_76" vType="DEFAULT_VEHTYPE" speedFactor="1.13" vaporized=""/>
    <tripinfo id="54" depart="115.00" departLane="256961141#0_0" departPos="5.10" departSpeed="0.00" departDelay="0.65" arrival="252.00" arrivalLane="450554042#0_0" arrivalPos="622.66" arrivalSpeed="14.51" duration="137.00" routeLength="853.74" waitingTime="65.00" waitingCount="1" stopTime="0.00" timeLoss="76.03" rerouteNo="0" devices="tripinfo_54" vType="DEFAULT_VEHTYPE" speedFactor="0.90" vaporized=""/>
    <tripinfo id="1" depart="3.00" departLane="-231177697#2_0" departPos="5.10" departSpeed="0.00" departDelay="0.88" arrival="255.00" arrivalLane="210831345#1_1" arrivalPos="264.29" arrivalSpeed="12.82" duration="252.00" routeLength="696.92" waitingTime="180.00" waitingCount="2" stopTime="0.00" timeLoss="196.19" rerouteNo="0" devices="tripinfo_1" vType="DEFAULT_VEHTYPE" speedFactor="0.93" vaporized=""/>
    <tripinfo id="21" depart="45.00" departLane="-231177697#2_0" departPos="5.10" departSpeed="0.00" departDelay="0.53" arrival="256.00" arrivalLane="210831345#1_0" arrivalPos="264.29" arrivalSpeed="14.05" duration="211.00" routeLength="696.92" waitingTime="148.00" waitingCount="1" stopTime="0.00" timeLoss="161.64" rerouteNo="0" devices="tripinfo_21" vType="DEFAULT_VEHTYPE" speedFactor="1.05" vaporized=""/>
    <tripinfo id="34" depart="72.00" departLane="-231177697#2_0" departPos="5.10" departSpeed="0.00" departDelay="0.00" arrival="257.00" arrivalLane="210831345#1_1" arrivalPos="264.29" arrivalSpeed="13.52" duration="185.00" routeLength="696.92" waitingTime="122.00" waitingCount="1" stopTime="0.00" timeLoss="136.74" rerouteNo="0" devices="tripinfo_34" vType="DEFAULT_VEHTYPE" speedFactor="1.06" vaporized=""/>
    <tripinfo id="29" depart="63.00" departLane="-226276377#1_0" departPos="5.10" departSpeed="0.00" departDelay="1.59" arrival="258.00" arrivalLane="210831347#0_1" arrivalPos="149.88" arrivalSpeed="13.98" duration="195.00" routeLength="888.52" waitingTime="126.00" waitingCount="1" stopTime="0.00" timeLoss="137.37" rerouteNo="0" devices="tripinfo_29" vType="DEFAULT_VEHTYPE" speedFactor="1.06" vaporized=""/>
    <tripinfo id="39" depart="83.00" departLane="-231177697#2_0" departPos="5.10" departSpeed="0.00" departDelay="0.41" arrival="259.00" arrivalLane="210831345#1_1" arrivalPos="264.29" arrivalSpeed="14.20" duration="176.00" routeLength="696.92" waitingTime="113.00" waitingCount="1" stopTime="0.00" timeLoss="127.08" rerouteNo="0" devices="tripinfo_39" vType="DEFAULT_VEHTYPE" speedFactor="1.04" vaporized=""/>
    <tripinfo id="68" depart="144.00" departLane="-218680176#1_0" departPos="5.10" departSpeed="0.00" departDelay="0.00" arrival="261.00" arrivalLane="231177697#0_0" arrivalPos="74.44" arrivalSpeed="12.26" duration="117.00" routeLength="205.97" waitingTime="87.00" waitingCount="2" stopTime="0.00" timeLoss="101.14" rerouteNo="0" devices="tripinfo_68" vType="DEFAULT_VEHTYPE" speedFactor="0.94" vaporized=""/>
    <tripinfo id="22" depart="47.00" departLane="-218680176#1_0" departPos="5.10" departSpeed="0.00" departDelay="0.41" arrival="262.00" arrivalLane="210831345#1_1" arrivalPos="264.29" arrivalSpeed="12.83" duration="215.00" routeLength="699.94" waitingTime="143.00" waitingCount="2" stopTime="0.00" timeLoss="160.96" rerouteNo="0" devices="tripinfo_22" vType="DEFAULT_VEHTYPE" speedFactor="0.96" vaporized=""/>
    <tripinfo id="23" depart="50.00" departLane="-218680176#1_0" departPos="5.10" departSpeed="0.00" departDelay="1.29" arrival="265.00" arrivalLane="210831345#1_0" arrivalPos="264.29" arrivalSpeed="12.60" duration="215.00" routeLength="699.94" waitingTime="139.00" waitingCount="2" stopTime="0.00" timeLoss="158.38" rerouteNo="0" devices="tripinfo_23" vType="DEFAULT_VEHTYPE" speedFactor="0.92" vaporized=""/>
    <tripinfo id="75" depart="159.00" departLane="E8_0" departPos="5.10" departSpeed="0.00" departDelay="0.18" arrival="268.00" arrivalLane="226276377#0_1" arrivalPos="135.52" arrivalSpeed="11.82" duration="109.00" routeLength="784.51" waitingTime="37.00" waitingCount="1" stopTime="0.00" timeLoss="47.29" rerouteNo="0" devices="tripinfo_75" vType="DEFAULT_VEHTYPE" speedFactor="0.92" vaporized=""/>
    <tripinfo id="36" depart="77.00" departLane="978867529_0" departPos="5.10" departSpeed="0.00" departDelay="0.76" arrival="269.00" arrivalLane="210831345#1_1" arrivalPos="264.29" arrivalSpeed="13.05" duration="192.00" routeLength="951.92" waitingTime="101.00" waitingCount="2" stopTime="0.00" timeLoss="124.02" rerouteNo="0" devices="tripinfo_36" vType="DEFAULT_VEHTYPE" speedFactor="0.96" vaporized=""/>
    <tripinfo id="62" depart="132.00" departLane="-218680176#1_0" departPos="5.10" departSpeed="0.00" departDelay="0.71" arrival="269.00" arrivalLane="210831345#1_0" arrivalPos="264.29" arrivalSpeed="11.53" duration="137.00" routeLength="699.94" waitingTime="60.00" waitingCount="2" stopTime="0.00" timeLoss="76.68" rerouteNo="0" devices="tripinfo_62" vType="DEFAULT_VEHTYPE" speedFactor="0.85" vaporized=""/>
    <tripinfo id="85" depart="180.00" departLane="E8_0" departPos="5.10" departSpeed="0.00" departDelay="0.00" arrival="270.00" arrivalLane="226276377#0_1" arrivalPos="135.52" arrivalSpeed="13.20" duration="90.00" routeLength="784.51" waitingTime="21.00" waitingCount="1" stopTime="0.00" timeLoss="32.49" rerouteNo="0" devices="tripinfo_85" vType="DEFAULT_VEHTYPE" speedFactor="1.00" vaporized=""/>
    <tripinfo id="55" depart="117.00" departLane="978867529_0" departPos="5.10" departSpeed="0.00" departDelay="0.53" arrival="271.00" arrivalLane="210831345#1_0" arrivalPos="264.29" arrivalSpeed="14.01" duration="154.00" routeLength="951.92" waitingTime="64.00" waitingCount="2" stopTime="0.00" timeLoss="89.91" rerouteNo="0" devices="tripinfo_55" vType="DEFAULT_VEHTYPE" speedFactor="1.03" vaporized=""/>
    <tripinfo id="33" depart="70.00" departLane="-231177697#2_0" departPos="5.10" departSpeed="0.00" departDelay="0.12" arrival="273.00" arrivalLane="-256961141#1_1" arrivalPos="204.72" arrivalSpeed="13.85" duration="203.00" routeLength="1204.36" waitingTime="112.00" waitingCount="1" stopTime="0.00" timeLoss="126.38" rerouteNo="0" devices="tripinfo_33" vType="DEFAULT_VEHTYPE" speedFactor="1.07" vaporized=""/>
    <tripinfo id="44" depart="94.00" departLane="-218680176#1_0" departPos="5.10" departSpeed="0.00" departDelay="0.82" arrival="275.00" arrivalLane="-256961141#1_1" arrivalPos="204.72" arrivalSpeed="14.58" duration="181.00" routeLength="1207.38" waitingTime="80.00" waitingCount="3" stopTime="0.00" timeLoss="107.42" rerouteNo="0" devices="tripinfo_44" vType="DEFAULT_VEHTYPE" speedFactor="1.12" vaporized=""/>
    <tripinfo id="13" depart="28.00" departLane="-218680176#1_0" departPos="5.10" departSpeed="0.00" departDelay="0.47" arrival="276.00" arrivalLane="-256961141#1_1" arrivalPos="204.72" arrivalSpeed="14.47" duration="248.00" routeLength="1207.38" waitingTime="144.00" waitingCount="3" stopTime="0.00" timeLoss="171.25" rerouteNo="0" devices="tripinfo_13" vType="DEFAULT_VEHTYPE" speedFactor="1.07" vaporized=""/>
    <tripinfo id="79" depart="168.00" departLane="-231177697#2_0" departPos="5.10" departSpeed="0.00" departDelay="0.71" arrival="276.00" arrivalLane="153964138#0_0" arrivalPos="337.99" arrivalSpeed="13.91" duration="108.00" routeLength="417.38" waitingTime="68.00" waitingCount="1" stopTime="0.00" timeLoss="77.70" rerouteNo="0" devices="tripinfo_79" vType="DEFAULT_VEHTYPE" speedFactor="0.90" vaporized=""/>
    <tripinfo id="65" depart="138.00" departLane="-231177697#2_0" departPos="5.10" departSpeed="0.00" departDelay="0.35" arrival="280.00" arrivalLane="-256961141#1_1" arrivalPos="204.72" arrivalSpeed="12.90" duration="142.00" routeLength="1204.36" waitingTime="37.00" waitingCount="2" stopTime="0.00" timeLoss="57.07" rerouteNo="0" devices="tripinfo_65" vType="DEFAULT_VEHTYPE" speedFactor="0.96" vaporized=""/>
    <tripinfo id="117" depart="248.00" departLane="-231177697#2_0" departPos="5.10" departSpeed="0.00" departDelay="0.24" arrival="284.00" arrivalLane="153964138#0_0" arrivalPos="337.99" arrivalSpeed="14.44" duration="36.00" routeLength="417.38" waitingTime="0.00" waitingCount="0" stopTime="0.00" timeLoss="6.46" rerouteNo="0" devices="tripinfo_117" vType="DEFAULT_VEHTYPE" speedFactor="0.90" vaporized=""/>
    <tripinfo id="103" depart="219.00" departLane="-661251539_0" departPos="5.10" departSpeed="0.00" departDelay="0.88" arrival="290.00" arrivalLane="-256961141#1_1" arrivalPos="204.72" arrivalSpeed="13.22" duration="71.00" routeLength="872.91" waitingTime="0.00" waitingCount="0" stopTime="0.00" timeLoss="10.23" rerouteNo="0" devices="tripinfo_103" vType="DEFAULT_VEHTYPE" speedFactor="1.00" vaporized=""/>
    <tripinfo id="46" depart="98.00" departLane="978867529_0" departPos="5.10" departSpeed="0.00" departDelay="0.59" arrival="295.00" arrivalLane="210831347#0_0" arrivalPos="149.88" arrivalSpeed="13.01" duration="197.00" routeLength="812.56" waitingTime="116.00" waitingCount="3" stopTime="0.00" timeLoss="140.41" rerouteNo="0" devices="tripinfo_46" vType="DEFAULT_VEHTYPE" speedFactor="0.99" vaporized=""/>
    <tripinfo id="88" depart="187.00" departLane="-218680176#1_0" departPos="5.10" departSpeed="0.00" departDelay="0.65" arrival="297.00" arrivalLane="210831347#0_0" arrivalPos="149.88" arrivalSpeed="13.51" duration="110.00" routeLength="560.58" waitingTime="52.00" waitingCount="1" stopTime="0.00" timeLoss="69.19" rerouteNo="0" devices="tripinfo_88" vType="DEFAULT_VEHTYPE" speedFactor="1.03" vaporized=""/>
    <tripinfo id="110" depart="233.00" departLane="E8_0" departPos="5.10" departSpeed="0.00" departDelay="0.06" arrival="299.00" arrivalLane="226276377#0_1" arrivalPos="135.52" arrivalSpeed="12.71" duration="66.00" routeLength="784.51" waitingTime="0.00" waitingCount="0" stopTime="0.00" timeLoss="6.48" rerouteNo="0" devices="tripinfo_110" vType="DEFAULT_VEHTYPE" speedFactor="0.97" vaporized=""/>
    <tripinfo id="77" depart="164.00" departLane="-226276377#1_0" departPos="5.10" departSpeed="0.00" departDelay="0.94" arrival="301.00" arrivalLane="210831345#1_0" arrivalPos="264.29" arrivalSpeed="15.19" duration="137.00" routeLength="977.93" waitingTime="57.00" waitingCount="2" stopTime="0.00" timeLoss="75.43" rerouteNo="0" devices="tripinfo_77" vType="DEFAULT_VEHTYPE" speedFactor="1.10" vaporized=""/>
    <tripinfo id="115" depart="244.00" departLane="-218680176#1_0" departPos="5.10" departSpeed="0.00" departDelay="0.47" arrival="303.00" arrivalLane="153964138#0_2" arrivalPos="337.99" arrivalSpeed="17.96" duration="59.00" routeLength="462.27" waitingTime="20.00" waitingCount="1" stopTime="0.00" timeLoss="31.50" rerouteNo="0" devices="tripinfo_115" vType="DEFAULT_VEHTYPE" speedFactor="1.09" vaporized=""/>
    <tripinfo id="128" depart="272.00" departLane="-218680176#1_0" departPos="5.10" departSpeed="0.00" departDelay="0.94" arrival="305.00" arrivalLane="153964138#0_2" arrivalPos="337.99" arrivalSpeed="17.53" duration="33.00" routeLength="462.27" waitingTime="0.00" waitingCount="0" stopTime="0.00" timeLoss="4.71" rerouteNo="0" devices="tripinfo_128" vType="DEFAULT_VEHTYPE" speedFactor="1.06" vaporized=""/>
    <tripinfo id="74" depart="157.00" departLane="-226276377#1_0" departPos="5.10" departSpeed="0.00" departDelay="0.29" arrival="308.00" arrivalLane="210831345#1_0" arrivalPos="264.29" arrivalSpeed="12.19" duration="151.00" routeLength="977.93" waitingTime="58.00" waitingCount="2" stopTime="0.00" timeLoss="77.19" rerouteNo="0" devices="tripinfo_74" vType="DEFAULT_VEHTYPE" speedFactor="0.92" vaporized=""/>
    <tripinfo id="109" depart="231.00" departLane="-226276377#1_0" departPos="5.10" departSpeed="0.00" departDelay="0.18" arrival="308.00" arrivalLane="210831345#1_1" arrivalPos="264.29" arrivalSpeed="15.81" duration="77.00" routeLength="977.93" waitingTime="3.00" waitingCount="1" stopTime="0.00" timeLoss="20.94" rerouteNo="0" devices="tripinfo_109" vType="DEFAULT_VEHTYPE" speedFactor="1.21" vaporized=""/>
    <tripinfo id="95" depart="202.00" departLane="-661251539_0" departPos="5.10" departSpeed="0.00" departDelay="0.82" arrival="310.00" arrivalLane="210831345#1_0" arrivalPos="264.29" arrivalSpeed="12.67" duration="108.00" routeLength="826.64" waitingTime="27.00" waitingCount="2" stopTime="0.00" timeLoss="44.80" rerouteNo="0" devices="tripinfo_95" vType="DEFAULT_VEHTYPE" speedFactor="0.97" vaporized=""/>
    <tripinfo id="114" depart="242.00" departLane="-226276377#1_0" departPos="5.10" departSpeed="0.00" departDelay="0.59" arrival="312.00" arrivalLane="450554042#0_0" arrivalPos="622.66" arrivalSpeed="17.75" duration="70.00" routeLength="763.53" waitingTime="15.00" waitingCount="1" stopTime="0.00" timeLoss="26.69" rerouteNo="0" devices="tripinfo_114" vType="DEFAULT_VEHTYPE" speedFactor="1.12" vaporized=""/>