<?xml version="1.0" encoding="UTF-8"?>

<!-- generated on 2024-09-02 16:21:23 by Eclipse SUMO sumo Version 1.20.0
<configuration xmlns:xsi="http://www.w3.org/2001/XMLSchema-instance" xsi:noNamespaceSchemaLocation="http://sumo.dlr.de/xsd/sumoConfiguration.xsd">

    <input>
        <net-file value="c:\self\School\Master\Disertation\code\RESCO\resco_benchmark\environments/unirii/osm.net.xml.gz"/>
        <route-files value="c:\self\School\Master\Disertation\code\RESCO\resco_benchmark\environments/unirii/osm.passenger.trips.xml"/>
        <additional-files value="c:\self\School\Master\Disertation\code\RESCO\resco_benchmark\environments/unirii/osm.poly.xml.gz"/>
    </input>

    <output>
        <tripinfo-output value="C:\self\School\Master\Disertation\code\RESCO\results\IPPO-tr0-unirii-0-drq_norm-wait_norm\tripinfo_91.xml"/>
        <tripinfo-output.write-unfinished value="true"/>
    </output>

    <processing>
        <ignore-route-errors value="true"/>
        <time-to-teleport value="-1"/>
    </processing>

    <routing>
        <device.rerouting.adaptation-steps value="18"/>
        <device.rerouting.adaptation-interval value="10"/>
    </routing>

    <report>
        <verbose value="true"/>
        <no-warnings value="True"/>
        <duration-log.statistics value="true"/>
        <no-step-log value="True"/>
    </report>

    <traci_server>
        <remote-port value="64315"/>
    </traci_server>

    <random_number>
        <random value="true"/>
    </random_number>

    <gui_only>
        <gui-settings-file value="c:\self\School\Master\Disertation\code\RESCO\resco_benchmark\environments/unirii/osm.view.xml"/>
    </gui_only>

</configuration>
-->

<tripinfos xmlns:xsi="http://www.w3.org/2001/XMLSchema-instance" xsi:noNamespaceSchemaLocation="http://sumo.dlr.de/xsd/tripinfo_file.xsd">
    <tripinfo id="7" depart="15.00" departLane="65746828#0_0" departPos="5.10" departSpeed="0.00" departDelay="0.18" arrival="63.00" arrivalLane="218680176#0_1" arrivalPos="98.94" arrivalSpeed="14.56" duration="48.00" routeLength="602.71" waitingTime="0.00" waitingCount="0" stopTime="0.00" timeLoss="5.47" rerouteNo="0" devices="tripinfo_7" vType="DEFAULT_VEHTYPE" speedFactor="1.05" vaporized=""/>
    <tripinfo id="10" depart="23.00" departLane="978867529_0" departPos="5.10" departSpeed="0.00" departDelay="1.82" arrival="63.00" arrivalLane="231177697#0_1" arrivalPos="74.44" arrivalSpeed="10.82" duration="40.00" routeLength="437.06" waitingTime="0.00" waitingCount="0" stopTime="0.00" timeLoss="4.65" rerouteNo="0" devices="tripinfo_10" vType="DEFAULT_VEHTYPE" speedFactor="0.81" vaporized=""/>
    <tripinfo id="15" depart="33.00" departLane="978867529_0" departPos="5.10" departSpeed="0.00" departDelay="1.24" arrival="66.00" arrivalLane="231177697#0_1" arrivalPos="74.44" arrivalSpeed="13.00" duration="33.00" routeLength="437.06" waitingTime="0.00" waitingCount="0" stopTime="0.00" timeLoss="4.71" rerouteNo="0" devices="tripinfo_15" vType="DEFAULT_VEHTYPE" speedFactor="1.02" vaporized=""/>
    <tripinfo id="16" depart="34.00" departLane="256961141#0_0" departPos="5.10" departSpeed="0.00" departDelay="0.12" arrival="100.00" arrivalLane="450554042#0_0" arrivalPos="622.66" arrivalSpeed="14.66" duration="66.00" routeLength="853.74" waitingTime="0.00" waitingCount="0" stopTime="0.00" timeLoss="5.56" rerouteNo="0" devices="tripinfo_16" vType="DEFAULT_VEHTYPE" speedFactor="0.91" vaporized=""/>
    <tripinfo id="6" depart="13.00" departLane="-218680176#1_0" departPos="5.10" departSpeed="0.00" departDelay="0.29" arrival="105.00" arrivalLane="153964138#0_2" arrivalPos="337.99" arrivalSpeed="14.90" duration="92.00" routeLength="462.27" waitingTime="53.00" waitingCount="1" stopTime="0.00" timeLoss="61.14" rerouteNo="0" devices="tripinfo_6" vType="DEFAULT_VEHTYPE" speedFactor="0.96" vaporized=""/>
    <tripinfo id="50" depart="106.00" departLane="-218680176#1_0" departPos="5.10" departSpeed="0.00" departDelay="0.12" arrival="127.00" arrivalLane="231177697#0_0" arrivalPos="74.44" arrivalSpeed="12.30" duration="21.00" routeLength="205.97" waitingTime="0.00" waitingCount="0" stopTime="0.00" timeLoss="3.37" rerouteNo="0" devices="tripinfo_50" vType="DEFAULT_VEHTYPE" speedFactor="0.89" vaporized=""/>
    <tripinfo id="22" depart="47.00" departLane="-218680176#1_0" departPos="5.10" departSpeed="0.00" departDelay="0.41" arrival="130.00" arrivalLane="210831345#1_0" arrivalPos="264.29" arrivalSpeed="11.50" duration="83.00" routeLength="699.94" waitingTime="13.00" waitingCount="1" stopTime="0.00" timeLoss="26.76" rerouteNo="0" devices="tripinfo_22" vType="DEFAULT_VEHTYPE" speedFactor="0.92" vaporized=""/>
    <tripinfo id="35" depart="75.00" departLane="-226276377#1_0" departPos="5.10" departSpeed="0.00" departDelay="0.88" arrival="132.00" arrivalLane="450554042#0_0" arrivalPos="622.66" arrivalSpeed="14.65" duration="57.00" routeLength="763.53" waitingTime="0.00" waitingCount="0" stopTime="0.00" timeLoss="6.52" rerouteNo="0" devices="tripinfo_35" vType="DEFAULT_VEHTYPE" speedFactor="0.95" vaporized=""/>
    <tripinfo id="1" depart="3.00" departLane="-231177697#2_0" departPos="5.10" departSpeed="0.00" departDelay="0.88" arrival="134.00" arrivalLane="210831345#1_0" arrivalPos="264.29" arrivalSpeed="11.66" duration="131.00" routeLength="696.92" waitingTime="65.00" waitingCount="1" stopTime="0.00" timeLoss="73.31" rerouteNo="0" devices="tripinfo_1" vType="DEFAULT_VEHTYPE" speedFactor="0.89" vaporized=""/>
    <tripinfo id="21" depart="45.00" departLane="-231177697#2_0" departPos="5.10" departSpeed="0.00" departDelay="0.53" arrival="135.00" arrivalLane="210831345#1_1" arrivalPos="264.29" arrivalSpeed="13.51" duration="90.00" routeLength="696.92" waitingTime="23.00" waitingCount="1" stopTime="0.00" timeLoss="39.84" rerouteNo="0" devices="tripinfo_21" vType="DEFAULT_VEHTYPE" speedFactor="1.02" vaporized=""/>
    <tripinfo id="31" depart="66.00" departLane="65746828#0_0" departPos="5.10" departSpeed="0.00" departDelay="0.35" arrival="140.00" arrivalLane="231177697#0_0" arrivalPos="74.44" arrivalSpeed="14.33" duration="74.00" routeLength="558.79" waitingTime="24.00" waitingCount="1" stopTime="0.00" timeLoss="33.49" rerouteNo="0" devices="tripinfo_31" vType="DEFAULT_VEHTYPE" speedFactor="1.05" vaporized=""/>
    <tripinfo id="34" depart="72.00" departLane="-231177697#2_0" departPos="5.10" departSpeed="0.00" departDelay="0.00" arrival="140.00" arrivalLane="210831345#1_1" arrivalPos="264.29" arrivalSpeed="12.58" duration="68.00" routeLength="696.92" waitingTime="0.00" waitingCount="0" stopTime="0.00" timeLoss="12.80" rerouteNo="0" devices="tripinfo_34" vType="DEFAULT_VEHTYPE" speedFactor="0.94" vaporized=""/>
    <tripinfo id="39" depart="83.00" departLane="-231177697#2_0" departPos="5.10" departSpeed="0.00" departDelay="0.41" arrival="141.00" arrivalLane="210831345#1_1" arrivalPos="264.29" arrivalSpeed="13.46" duration="58.00" routeLength="696.92" waitingTime="0.00" waitingCount="0" stopTime="0.00" timeLoss="9.62" rerouteNo="0" devices="tripinfo_39" vType="DEFAULT_VEHTYPE" speedFactor="1.05" vaporized=""/>
    <tripinfo id="3" depart="7.00" departLane="E8_0" departPos="5.10" departSpeed="0.00" departDelay="0.65" arrival="147.00" arrivalLane="-256961141#1_0" arrivalPos="204.72" arrivalSpeed="13.56" duration="140.00" routeLength="832.89" waitingTime="68.00" waitingCount="1" stopTime="0.00" timeLoss="78.17" rerouteNo="0" devices="tripinfo_3" vType="DEFAULT_VEHTYPE" speedFactor="0.99" vaporized=""/>
    <tripinfo id="2" depart="5.00" departLane="666135205#0_0" departPos="5.10" departSpeed="0.00" departDelay="0.76" arrival="155.00" arrivalLane="231177697#0_0" arrivalPos="74.44" arrivalSpeed="14.71" duration="150.00" routeLength="649.17" waitingTime="94.00" waitingCount="1" stopTime="0.00" timeLoss="105.64" rerouteNo="0" devices="tripinfo_2" vType="DEFAULT_VEHTYPE" speedFactor="1.08" vaporized=""/>
    <tripinfo id="11" depart="24.00" departLane="-661251539_0" departPos="5.10" departSpeed="0.00" departDelay="0.71" arrival="155.00" arrivalLane="153964138#0_0" arrivalPos="337.99" arrivalSpeed="14.54" duration="131.00" routeLength="1239.04" waitingTime="26.00" waitingCount="1" stopTime="0.00" timeLoss="40.39" rerouteNo="0" devices="tripinfo_11" vType="DEFAULT_VEHTYPE" speedFactor="0.95" vaporized=""/>
    <tripinfo id="47" depart="100.00" departLane="-218680176#1_0" departPos="5.10" departSpeed="0.00" departDelay="0.47" arrival="155.00" arrivalLane="210831347#0_0" arrivalPos="149.88" arrivalSpeed="12.16" duration="55.00" routeLength="560.58" waitingTime="0.00" waitingCount="0" stopTime="0.00" timeLoss="8.78" rerouteNo="0" devices="tripinfo_47" vType="DEFAULT_VEHTYPE" speedFactor="0.92" vaporized=""/>
    <tripinfo id="61" depart="130.00" departLane="978867529_0" departPos="5.10" departSpeed="0.00" departDelay="0.82" arrival="167.00" arrivalLane="218680176#0_0" arrivalPos="98.94" arrivalSpeed="13.63" duration="37.00" routeLength="442.15" waitingTime="0.00" waitingCount="0" stopTime="0.00" timeLoss="7.24" rerouteNo="0" devices="tripinfo_61" vType="DEFAULT_VEHTYPE" speedFactor="0.99" vaporized=""/>
    <tripinfo id="25" depart="53.00" departLane="-661251539_0" departPos="5.10" departSpeed="0.00" departDelay="0.06" arrival="175.00" arrivalLane="153964138#0_0" arrivalPos="337.99" arrivalSpeed="17.39" duration="122.00" routeLength="1239.04" waitingTime="29.00" waitingCount="1" stopTime="0.00" timeLoss="45.26" rerouteNo="0" devices="tripinfo_25" vType="DEFAULT_VEHTYPE" speedFactor="1.11" vaporized=""/>
    <tripinfo id="23" depart="50.00" departLane="-218680176#1_0" departPos="5.10" departSpeed="0.00" departDelay="1.29" arrival="176.00" arrivalLane="210831345#1_1" arrivalPos="264.29" arrivalSpeed="15.71" duration="126.00" routeLength="699.94" waitingTime="60.00" waitingCount="3" stopTime="0.00" timeLoss="80.52" rerouteNo="0" devices="tripinfo_23" vType="DEFAULT_VEHTYPE" speedFactor="1.15" vaporized=""/>
    <tripinfo id="36" depart="77.00" departLane="978867529_0" departPos="5.10" departSpeed="0.00" departDelay="0.76" arrival="185.00" arrivalLane="210831345#1_1" arrivalPos="264.29" arrivalSpeed="11.56" duration="108.00" routeLength="951.92" waitingTime="24.00" waitingCount="1" stopTime="0.00" timeLoss="34.96" rerouteNo="0" devices="tripinfo_36" vType="DEFAULT_VEHTYPE" speedFactor="0.90" vaporized=""/>
    <tripinfo id="55" depart="117.00" departLane="978867529_0" departPos="5.10" departSpeed="0.00" departDelay="0.53" arrival="185.00" arrivalLane="210831345#1_0" arrivalPos="264.29" arrivalSpeed="14.00" duration="68.00" routeLength="951.92" waitingTime="0.00" waitingCount="0" stopTime="0.00" timeLoss="8.18" rerouteNo="0" devices="tripinfo_55" vType="DEFAULT_VEHTYPE" speedFactor="1.10" vaporized=""/>
    <tripinfo id="42" depart="89.00" departLane="-661251539_0" departPos="5.10" departSpeed="0.00" departDelay="0.06" arrival="191.00" arrivalLane="153964138#0_0" arrivalPos="337.99" arrivalSpeed="14.67" duration="102.00" routeLength="1239.04" waitingTime="0.00" waitingCount="0" stopTime="0.00" timeLoss="9.04" rerouteNo="0" devices="tripinfo_42" vType="DEFAULT_VEHTYPE" speedFactor="0.92" vaporized=""/>
    <tripinfo id="40" depart="85.00" departLane="65746828#0_0" departPos="5.10" departSpeed="0.00" departDelay="0.29" arrival="195.00" arrivalLane="210831345#1_0" arrivalPos="264.29" arrivalSpeed="16.04" duration="110.00" routeLength="446.75" waitingTime="68.00" waitingCount="2" stopTime="0.00" timeLoss="83.40" rerouteNo="0" devices="tripinfo_40" vType="DEFAULT_VEHTYPE" speedFactor="1.23" vaporized=""/>
    <tripinfo id="32" depart="68.00" departLane="978867529_0" departPos="5.10" departSpeed="0.00" departDelay="0.24" arrival="213.00" arrivalLane="231177697#0_1" arrivalPos="74.44" arrivalSpeed="14.31" duration="145.00" routeLength="437.06" waitingTime="108.00" waitingCount="1" stopTime="0.00" timeLoss="118.98" rerouteNo="0" devices="tripinfo_32" vType="DEFAULT_VEHTYPE" speedFactor="1.11" vaporized=""/>
    <tripinfo id="5" depart="11.00" departLane="-226276377#1_0" departPos="5.10" departSpeed="0.00" departDelay="0.41" arrival="216.00" arrivalLane="218680176#0_1" arrivalPos="98.94" arrivalSpeed="13.57" duration="205.00" routeLength="1158.55" waitingTime="102.00" waitingCount="3" stopTime="0.00" timeLoss="122.47" rerouteNo="0" devices="tripinfo_5" vType="DEFAULT_VEHTYPE" speedFactor="0.98" vaporized=""/>
    <tripinfo id="17" depart="36.00" departLane="-661251539_0" departPos="5.10" departSpeed="0.00" departDelay="0.00" arrival="217.00" arrivalLane="218680176#0_1" arrivalPos="98.94" arrivalSpeed="13.38" duration="181.00" routeLength="1001.21" waitingTime="87.00" waitingCount="2" stopTime="0.00" timeLoss="106.04" rerouteNo="0" devices="tripinfo_17" vType="DEFAULT_VEHTYPE" speedFactor="0.98" vaporized=""/>
    <tripinfo id="30" depart="64.00" departLane="E8_0" departPos="5.10" departSpeed="0.00" departDelay="0.47" arrival="218.00" arrivalLane="226276377#0_1" arrivalPos="135.52" arrivalSpeed="13.56" duration="154.00" routeLength="784.51" waitingTime="87.00" waitingCount="1" stopTime="0.00" timeLoss="98.98" rerouteNo="0" devices="tripinfo_30" vType="DEFAULT_VEHTYPE" speedFactor="1.05" vaporized=""/>
    <tripinfo id="46" depart="98.00" departLane="978867529_0" departPos="5.10" departSpeed="0.00" departDelay="0.59" arrival="218.00" arrivalLane="210831347#0_0" arrivalPos="149.88" arrivalSpeed="13.54" duration="120.00" routeLength="812.56" waitingTime="45.00" waitingCount="2" stopTime="0.00" timeLoss="62.94" rerouteNo="0" devices="tripinfo_46" vType="DEFAULT_VEHTYPE" speedFactor="0.99" vaporized=""/>
    <tripinfo id="51" depart="108.00" departLane="666135205#0_0" departPos="5.10" departSpeed="0.00" departDelay="0.00" arrival="219.00" arrivalLane="218680176#0_1" arrivalPos="98.94" arrivalSpeed="13.96" duration="111.00" routeLength="693.09" waitingTime="44.00" waitingCount="2" stopTime="0.00" timeLoss="60.93" rerouteNo="0" devices="tripinfo_51" vType="DEFAULT_VEHTYPE" speedFactor="1.02" vaporized=""/>
    <tripinfo id="75" depart="159.00" departLane="E8_0" departPos="5.10" departSpeed="0.00" departDelay="0.18" arrival="221.00" arrivalLane="226276377#0_1" arrivalPos="135.52" arrivalSpeed="13.90" duration="62.00" routeLength="784.51" waitingTime="0.00" waitingCount="0" stopTime="0.00" timeLoss="5.75" rerouteNo="0" devices="tripinfo_75" vType="DEFAULT_VEHTYPE" speedFactor="1.02" vaporized=""/>
    <tripinfo id="60" depart="128.00" departLane="666135205#0_0" departPos="5.10" departSpeed="0.00" departDelay="0.94" arrival="222.00" arrivalLane="218680176#0_1" arrivalPos="98.94" arrivalSpeed="12.54" duration="94.00" routeLength="693.09" waitingTime="22.00" waitingCount="2" stopTime="0.00" timeLoss="39.27" rerouteNo="0" devices="tripinfo_60" vType="DEFAULT_VEHTYPE" speedFactor="0.94" vaporized=""/>
    <tripinfo id="4" depart="9.00" departLane="-661251539_0" departPos="5.10" departSpeed="0.00" departDelay="0.53" arrival="225.00" arrivalLane="-256961141#1_1" arrivalPos="204.72" arrivalSpeed="11.62" duration="216.00" routeLength="872.91" waitingTime="137.00" waitingCount="1" stopTime="0.00" timeLoss="150.32" rerouteNo="0" devices="tripinfo_4" vType="DEFAULT_VEHTYPE" speedFactor="0.93" vaporized=""/>
    <tripinfo id="0" depart="0.00" departLane="65746828#0_0" departPos="5.10" departSpeed="0.00" departDelay="0.00" arrival="227.00" arrivalLane="-256961141#1_1" arrivalPos="204.72" arrivalSpeed="13.13" duration="227.00" routeLength="931.50" waitingTime="143.00" waitingCount="2" stopTime="0.00" timeLoss="160.74" rerouteNo="0" devices="tripinfo_0" vType="DEFAULT_VEHTYPE" speedFactor="0.95" vaporized=""/>
    <tripinfo id="20" depart="43.00" departLane="666135205#0_0" departPos="5.10" departSpeed="0.00" departDelay="0.65" arrival="228.00" arrivalLane="-256961141#1_1" arrivalPos="204.72" arrivalSpeed="14.97" duration="185.00" routeLength="1068.72" waitingTime="104.00" waitingCount="2" stopTime="0.00" timeLoss="123.14" rerouteNo="0" devices="tripinfo_20" vType="DEFAULT_VEHTYPE" speedFactor="1.17" vaporized=""/>
    <tripinfo id="33" depart="70.00" departLane="-231177697#2_0" departPos="5.10" departSpeed="0.00" departDelay="0.12" arrival="230.00" arrivalLane="-256961141#1_1" arrivalPos="204.72" arrivalSpeed="16.36" duration="160.00" routeLength="1204.36" waitingTime="59.00" waitingCount="3" stopTime="0.00" timeLoss="93.92" rerouteNo="0" devices="tripinfo_33" vType="DEFAULT_VEHTYPE" speedFactor="1.24" vaporized=""/>
    <tripinfo id="44" depart="94.00" departLane="-218680176#1_0" departPos="5.10" departSpeed="0.00" departDelay="0.82" arrival="232.00" arrivalLane="-256961141#1_1" arrivalPos="204.72" arrivalSpeed="13.87" duration="138.00" routeLength="1207.38" waitingTime="38.00" waitingCount="1" stopTime="0.00" timeLoss="60.01" rerouteNo="0" devices="tripinfo_44" vType="DEFAULT_VEHTYPE" speedFactor="1.06" vaporized=""/>
    <tripinfo id="13" depart="28.00" departLane="-218680176#1_0" departPos="5.10" departSpeed="0.00" departDelay="0.47" arrival="236.00" arrivalLane="-256961141#1_1" arrivalPos="204.72" arrivalSpeed="12.05" duration="208.00" routeLength="1207.38" waitingTime="89.00" waitingCount="3" stopTime="0.00" timeLoss="115.40" rerouteNo="0" devices="tripinfo_13" vType="DEFAULT_VEHTYPE" speedFactor="0.88" vaporized=""/>
    <tripinfo id="27" depart="58.00" departLane="65746828#0_0" departPos="5.10" departSpeed="0.00" departDelay="0.82" arrival="242.00" arrivalLane="226276377#0_0" arrivalPos="135.52" arrivalSpeed="13.24" duration="184.00" routeLength="841.69" waitingTime="112.00" waitingCount="2" stopTime="0.00" timeLoss="126.36" rerouteNo="0" devices="tripinfo_27" vType="DEFAULT_VEHTYPE" speedFactor="0.97" vaporized=""/>
    <tripinfo id="45" depart="97.00" departLane="-218680176#1_0" departPos="5.10" departSpeed="0.00" departDelay="1.71" arrival="244.00" arrivalLane="226276377#0_0" arrivalPos="135.52" arrivalSpeed="15.99" duration="147.00" routeLength="1117.57" waitingTime="54.00" waitingCount="1" stopTime="0.00" timeLoss="84.68" rerouteNo="0" devices="tripinfo_45" vType="DEFAULT_VEHTYPE" speedFactor="1.22" vaporized=""/>
    <tripinfo id="64" depart="136.00" departLane="978867529_0" departPos="5.10" departSpeed="0.00" departDelay="0.47" arrival="245.00" arrivalLane="39907424_0" arrivalPos="316.44" arrivalSpeed="15.46" duration="109.00" routeLength="1216.15" waitingTime="21.00" waitingCount="1" stopTime="0.00" timeLoss="36.57" rerouteNo="0" devices="tripinfo_64" vType="DEFAULT_VEHTYPE" speedFactor="1.14" vaporized=""/>
    <tripinfo id="79" depart="168.00" departLane="-231177697#2_0" departPos="5.10" departSpeed="0.00" departDelay="0.71" arrival="246.00" arrivalLane="153964138#0_0" arrivalPos="337.99" arrivalSpeed="17.86" duration="78.00" routeLength="417.38" waitingTime="44.00" waitingCount="1" stopTime="0.00" timeLoss="54.49" rerouteNo="0" devices="tripinfo_79" vType="DEFAULT_VEHTYPE" speedFactor="1.15" vaporized=""/>
    <tripinfo id="73" depart="155.00" departLane="256961141#0_0" departPos="5.10" departSpeed="0.00" departDelay="0.41" arrival="247.00" arrivalLane="231177697#0_0" arrivalPos="74.44" arrivalSpeed="14.16" duration="92.00" routeLength="1163.55" waitingTime="0.00" waitingCount="0" stopTime="0.00" timeLoss="14.87" rerouteNo="0" devices="tripinfo_73" vType="DEFAULT_VEHTYPE" speedFactor="1.06" vaporized=""/>
    <tripinfo id="78" depart="166.00" departLane="-661251539_0" departPos="5.10" departSpeed="0.00" departDelay="0.82" arrival="248.00" arrivalLane="226276377#0_0" arrivalPos="135.52" arrivalSpeed="12.40" duration="82.00" routeLength="783.10" waitingTime="2.00" waitingCount="2" stopTime="0.00" timeLoss="21.05" rerouteNo="0" devices="tripinfo_78" vType="DEFAULT_VEHTYPE" speedFactor="0.90" vaporized=""/>
    <tripinfo id="72" depart="153.00" departLane="-661251539_0" departPos="5.10" departSpeed="0.00" departDelay="0.53" arrival="252.00" arrivalLane="153964138#0_1" arrivalPos="337.99" arrivalSpeed="19.37" duration="99.00" routeLength="1239.04" waitingTime="16.00" waitingCount="1" stopTime="0.00" timeLoss="29.25" rerouteNo="0" devices="tripinfo_72" vType="DEFAULT_VEHTYPE" speedFactor="1.23" vaporized=""/>
    <tripinfo id="19" depart="42.00" departLane="978867529_0" departPos="5.10" departSpeed="0.00" departDelay="1.76" arrival="253.00" arrivalLane="226276377#0_0" arrivalPos="135.52" arrivalSpeed="13.84" duration="211.00" routeLength="1369.55" waitingTime="105.00" waitingCount="2" stopTime="0.00" timeLoss="127.44" rerouteNo="0" devices="tripinfo_19" vType="DEFAULT_VEHTYPE" speedFactor="1.08" vaporized=""/>
    <tripinfo id="69" depart="147.00" departLane="666135205#0_0" departPos="5.10" departSpeed="0.00" departDelay="0.88" arrival="253.00" arrivalLane="153964138#0_0" arrivalPos="337.99" arrivalSpeed="15.90" duration="106.00" routeLength="924.87" waitingTime="24.00" waitingCount="2" stopTime="0.00" timeLoss="44.27" rerouteNo="0" devices="tripinfo_69" vType="DEFAULT_VEHTYPE" speedFactor="1.03" vaporized=""/>
    <tripinfo id="18" depart="39.00" departLane="978867529_0" departPos="5.10" departSpeed="0.00" departDelay="0.88" arrival="254.00" arrivalLane="226276377#0_0" arrivalPos="135.52" arrivalSpeed="15.50" duration="215.00" routeLength="1369.55" waitingTime="111.00" waitingCount="2" stopTime="0.00" timeLoss="135.75" rerouteNo="0" devices="tripinfo_18" vType="DEFAULT_VEHTYPE" speedFactor="1.13" vaporized=""/>
    <tripinfo id="14" depart="30.00" departLane="978867529_0" departPos="5.10" departSpeed="0.00" departDelay="0.35" arrival="258.00" arrivalLane="226276377#0_0" arrivalPos="135.52" arrivalSpeed="14.59" duration="228.00" routeLength="1369.55" waitingTime="111.00" waitingCount="2" stopTime="0.00" timeLoss="142.46" rerouteNo="0" devices="tripinfo_14" vType="DEFAULT_VEHTYPE" speedFactor="1.05" vaporized=""/>
    <tripinfo id="56" depart="119.00" departLane="256961141#0_0" departPos="5.10" departSpeed="0.00" departDelay="0.41" arrival="266.00" arrivalLane="153964138#0_0" arrivalPos="337.99" arrivalSpeed="13.07" duration="147.00" routeLength="1439.25" waitingTime="10.00" waitingCount="1" stopTime="0.00" timeLoss="27.77" rerouteNo="0" devices="tripinfo_56" vType="DEFAULT_VEHTYPE" speedFactor="0.81" vaporized=""/>
    <tripinfo id="41" depart="88.00" departLane="65746828#0_0" departPos="5.10" departSpeed="0.00" departDelay="1.18" arrival="271.00" arrivalLane="450554042#0_0" arrivalPos="622.66" arrivalSpeed="16.18" duration="183.00" routeLength="1340.72" waitingTime="76.00" waitingCount="3" stopTime="0.00" timeLoss="98.84" rerouteNo="0" devices="tripinfo_41" vType="DEFAULT_VEHTYPE" speedFactor="1.00" vaporized=""/>
    <tripinfo id="59" depart="125.00" departLane="65746828#0_0" departPos="5.10" departSpeed="0.00" departDelay="0.06" arrival="271.00" arrivalLane="153964138#0_1" arrivalPos="337.99" arrivalSpeed="19.19" duration="146.00" routeLength="834.49" waitingTime="86.00" waitingCount="1" stopTime="0.00" timeLoss="97.79" rerouteNo="0" devices="tripinfo_59" vType="DEFAULT_VEHTYPE" speedFactor="1.17" vaporized=""/>
    <tripinfo id="108" depart="229.00" departLane="65746828#0_0" departPos="5.10" departSpeed="0.00" departDelay="0.29" arrival="272.00" arrivalLane="231177697#0_0" arrivalPos="74.44" arrivalSpeed="15.31" duration="43.00" routeLength="558.79" waitingTime="0.00" waitingCount="0" stopTime="0.00" timeLoss="6.86" rerouteNo="0" devices="tripinfo_108" vType="DEFAULT_VEHTYPE" speedFactor="1.15" vaporized=""/>
    <tripinfo id="26" depart="56.00" departLane="-231177697#2_0" departPos="5.10" departSpeed="0.00" departDelay="0.94" arrival="277.00" arrivalLane="450554042#0_0" arrivalPos="622.66" arrivalSpeed="13.57" duration="221.00" routeLength="1613.58" waitingTime="80.00" waitingCount="3" stopTime="0.00" timeLoss="102.74" rerouteNo="0" devices="tripinfo_26" vType="DEFAULT_VEHTYPE" speedFactor="0.87" vaporized=""/>
    <tripinfo id="86" depart="183.00" departLane="256961141#0_0" departPos="5.10" departSpeed="0.00" departDelay="0.88" arrival="277.00" arrivalLane="39907424_0" arrivalPos="316.44" arrivalSpeed="12.62" duration="94.00" routeLength="873.95" waitingTime="16.00" waitingCount="1" stopTime="0.00" timeLoss="30.74" rerouteNo="0" devices="tripinfo_86" vType="DEFAULT_VEHTYPE" speedFactor="0.96" vaporized=""/>
    <tripinfo id="49" depart="105.00" departLane="E8_0" departPos="5.10" departSpeed="0.00" departDelay="1.24" arrival="279.00" arrivalLane="39907424_0" arrivalPos="316.44" arrivalSpeed="15.67" duration="174.00" routeLength="1303.68" waitingTime="75.00" waitingCount="1" stopTime="0.00" timeLoss="93.65" rerouteNo="0" devices="tripinfo_49" vType="DEFAULT_VEHTYPE" speedFactor="1.14" vaporized=""/>
    <tripinfo id="68" depart="144.00" departLane="-218680176#1_0" departPos="5.10" departSpeed="0.00" departDelay="0.00" arrival="290.00" arrivalLane="231177697#0_0" arrivalPos="74.44" arrivalSpeed="14.30" duration="146.00" routeLength="205.97" waitingTime="117.00" waitingCount="2" stopTime="0.00" timeLoss="131.99" rerouteNo="0" devices="tripinfo_68" vType="DEFAULT_VEHTYPE" speedFactor="1.08" vaporized=""/>
    <tripinfo id="57" depart="121.00" departLane="E8_0" departPos="5.10" departSpeed="0.00" departDelay="0.29" arrival="294.00" arrivalLane="39907424_0" arrivalPos="316.44" arrivalSpeed="9.68" duration="173.00" routeLength="1303.68" waitingTime="40.00" waitingCount="1" stopTime="0.00" timeLoss="57.35" rerouteNo="0" devices="tripinfo_57" vType="DEFAULT_VEHTYPE" speedFactor="0.79" vaporized=""/>
    <tripinfo id="66" depart="140.00" departLane="978867529_0" departPos="5.10" departSpeed="0.00" departDelay="0.24" arrival="295.00" arrivalLane="450554042#0_0" arrivalPos="622.66" arrivalSpeed="14.98" duration="155.00" routeLength="1868.58" waitingTime="9.00" waitingCount="1" stopTime="0.00" timeLoss="24.74" rerouteNo="0" devices="tripinfo_66" vType="DEFAULT_VEHTYPE" speedFactor="0.90" vaporized=""/>
    <tripinfo id="54" depart="115.00" departLane="256961141#0_0" departPos="5.10" departSpeed="0.00" departDelay="0.65" arrival="301.00" arrivalLane="450554042#0_0" arrivalPos="622.66" arrivalSpeed="14.32" duration="186.00" routeLength="853.74" waitingTime="115.00" waitingCount="1" stopTime="0.00" timeLoss="125.82" rerouteNo="0" devices="tripinfo_54" vType="DEFAULT_VEHTYPE" speedFactor="0.91" vaporized=""/>
    <tripinfo id="117" depart="248.00" departLane="-231177697#2_0" departPos="5.10" departSpeed="0.00" departDelay="0.24" arrival="302.00" arrivalLane="153964138#0_0" arrivalPos="337.99" arrivalSpeed="18.39" duration="54.00" routeLength="417.38" waitingTime="19.00" waitingCount="1" stopTime="0.00" timeLoss="28.85" rerouteNo="0" devices="tripinfo_117" vType="DEFAULT_VEHTYPE" speedFactor="1.10" vaporized=""/>
    <tripinfo id="95" depart="202.00" departLane="-661251539_0" departPos="5.10" departSpeed="0.00" departDelay="0.82" arrival="305.00" arrivalLane="210831345#1_0" arrivalPos="264.29" arrivalSpeed="13.19" duration="103.00" routeLength="826.64" waitingTime="22.00" waitingCount="2" stopTime="0.00" timeLoss="43.29" rerouteNo="0" devices="tripinfo_95" vType="DEFAULT_VEHTYPE" speedFactor="1.02" vaporized=""/>
    <tripinfo id="85" depart="180.00" departLane="E8_0" departPos="5.10" departSpeed="0.00" departDelay="0.00" arrival="317.00" arrivalLane="226276377#0_1" arrivalPos="135.52" arrivalSpeed="14.78" duration="137.00" routeLength="784.51" waitingTime="74.00" waitingCount="1" stopTime="0.00" timeLoss="85.35" rerouteNo="0" devices="tripinfo_85" vType="DEFAULT_VEHTYPE" speedFactor="1.12" vaporized=""/>
    <tripinfo id="74" depart="157.00" departLane="-226276377#1_0" departPos="5.10" departSpeed="0.00" departDelay="0.29" arrival="320.00" arrivalLane="210831345#1_0" arrivalPos="264.29" arrivalSpeed="14.33" duration="163.00" routeLength="977.93" waitingTime="84.00" waitingCount="1" stopTime="0.00" timeLoss="99.11" rerouteNo="0" devices="tripinfo_74" vType="DEFAULT_VEHTYPE" speedFactor="1.07" vaporized=""/>
    <tripinfo id="114" depart="242.00" departLane="-226276377#1_0" departPos="5.10" departSpeed="0.00" departDelay="0.59" arrival="320.00" arrivalLane="450554042#0_0" arrivalPos="622.66" arrivalSpeed="16.49" duration="78.00" routeLength="763.53" waitingTime="19.00" waitingCount="1" stopTime="0.00" timeLoss="30.00" rerouteNo="0" devices="tripinfo_114" vType="DEFAULT_VEHTYPE" speedFactor="1.00" vaporized=""/>
    <tripinfo id="110" depart="233.00" departLane="E8_0" departPos="5.10" departSpeed="0.00" departDelay="0.06" arrival="323.00" arrivalLane="226276377#0_1" arrivalPos="135.52" arrivalSpeed="10.18" duration="90.00" routeLength="784.51" waitingTime="4.00" waitingCount="1" stopTime="0.00" timeLoss="15.54" rerouteNo="0" devices="tripinfo_110" vType="DEFAULT_VEHTYPE" speedFactor="0.76" vaporized=""/>
    <tripinfo id="9" depart="20.00" departLane="978867529_0" departPos="5.10" departSpeed="0.00" departDelay="0.94" arrival="325.00" arrivalLane="-256961141#1_1" arrivalPos="204.72" arrivalSpeed="11.54" duration="305.00" routeLength="1459.36" waitingTime="176.00" waitingCount="3" stopTime="0.00" timeLoss="198.81" rerouteNo="0" devices="tripinfo_9" vType="DEFAULT_VEHTYPE" speedFactor="0.90" vaporized=""/>
    <tripinfo id="82" depart="174.00" departLane="978867529_0" departPos="5.10" departSpeed="0.00" departDelay="0.35" arrival="327.00" arrivalLane="-256961141#1_1" arrivalPos="204.72" arrivalSpeed="13.99" duration="153.00" routeLength="1459.36" waitingTime="46.00" waitingCount="1" stopTime="0.00" timeLoss="62.16" rerouteNo="0" devices="tripinfo_82" vType="DEFAULT_VEHTYPE" speedFactor="1.06" vaporized=""/>
    <tripinfo id="115" depart="244.00" departLane="-218680176#1_0" departPos="5.10" departSpeed="0.00" departDelay="0.47" arrival="328.00" arrivalLane="153964138#0_2" arrivalPos="337.99" arrivalSpeed="17.27" duration="84.00" routeLength="462.27" waitingTime="44.00" waitingCount="1" stopTime="0.00" timeLoss="55.69" rerouteNo="0" devices="tripinfo_115" vType="DEFAULT_VEHTYPE" speedFactor="1.07" vaporized=""/>