<?xml version="1.0" encoding="UTF-8"?>

<!-- generated on 2024-09-02 16:17:02 by Eclipse SUMO sumo Version 1.20.0
<configuration xmlns:xsi="http://www.w3.org/2001/XMLSchema-instance" xsi:noNamespaceSchemaLocation="http://sumo.dlr.de/xsd/sumoConfiguration.xsd">

    <input>
        <net-file value="c:\self\School\Master\Disertation\code\RESCO\resco_benchmark\environments/unirii/osm.net.xml.gz"/>
        <route-files value="c:\self\School\Master\Disertation\code\RESCO\resco_benchmark\environments/unirii/osm.passenger.trips.xml"/>
        <additional-files value="c:\self\School\Master\Disertation\code\RESCO\resco_benchmark\environments/unirii/osm.poly.xml.gz"/>
    </input>

    <output>
        <tripinfo-output value="C:\self\School\Master\Disertation\code\RESCO\results\IPPO-tr0-unirii-0-drq_norm-wait_norm\tripinfo_49.xml"/>
        <tripinfo-output.write-unfinished value="true"/>
    </output>

    <processing>
        <ignore-route-errors value="true"/>
        <time-to-teleport value="-1"/>
    </processing>

    <routing>
        <device.rerouting.adaptation-steps value="18"/>
        <device.rerouting.adaptation-interval value="10"/>
    </routing>

    <report>
        <verbose value="true"/>
        <no-warnings value="True"/>
        <duration-log.statistics value="true"/>
        <no-step-log value="True"/>
    </report>

    <traci_server>
        <remote-port value="64118"/>
    </traci_server>

    <random_number>
        <random value="true"/>
    </random_number>

    <gui_only>
        <gui-settings-file value="c:\self\School\Master\Disertation\code\RESCO\resco_benchmark\environments/unirii/osm.view.xml"/>
    </gui_only>

</configuration>
-->

<tripinfos xmlns:xsi="http://www.w3.org/2001/XMLSchema-instance" xsi:noNamespaceSchemaLocation="http://sumo.dlr.de/xsd/tripinfo_file.xsd">
    <tripinfo id="6" depart="13.00" departLane="-218680176#1_0" departPos="5.10" departSpeed="0.00" departDelay="0.29" arrival="53.00" arrivalLane="153964138#0_2" arrivalPos="337.99" arrivalSpeed="17.20" duration="40.00" routeLength="462.27" waitingTime="1.00" waitingCount="1" stopTime="0.00" timeLoss="12.01" rerouteNo="0" devices="tripinfo_6" vType="DEFAULT_VEHTYPE" speedFactor="1.07" vaporized=""/>
    <tripinfo id="16" depart="34.00" departLane="256961141#0_0" departPos="5.10" departSpeed="0.00" departDelay="0.12" arrival="90.00" arrivalLane="450554042#0_1" arrivalPos="622.66" arrivalSpeed="18.88" duration="56.00" routeLength="853.74" waitingTime="0.00" waitingCount="0" stopTime="0.00" timeLoss="9.22" rerouteNo="0" devices="tripinfo_16" vType="DEFAULT_VEHTYPE" speedFactor="1.16" vaporized=""/>
    <tripinfo id="2" depart="5.00" departLane="666135205#0_0" departPos="5.10" departSpeed="0.00" departDelay="0.76" arrival="111.00" arrivalLane="231177697#0_0" arrivalPos="74.44" arrivalSpeed="13.82" duration="106.00" routeLength="649.17" waitingTime="46.00" waitingCount="1" stopTime="0.00" timeLoss="60.99" rerouteNo="0" devices="tripinfo_2" vType="DEFAULT_VEHTYPE" speedFactor="1.06" vaporized=""/>
    <tripinfo id="3" depart="7.00" departLane="E8_0" departPos="5.10" departSpeed="0.00" departDelay="0.65" arrival="124.00" arrivalLane="-256961141#1_0" arrivalPos="204.72" arrivalSpeed="12.32" duration="117.00" routeLength="832.89" waitingTime="38.00" waitingCount="1" stopTime="0.00" timeLoss="50.31" rerouteNo="0" devices="tripinfo_3" vType="DEFAULT_VEHTYPE" speedFactor="0.92" vaporized=""/>
    <tripinfo id="40" depart="85.00" departLane="65746828#0_0" departPos="5.10" departSpeed="0.00" departDelay="0.29" arrival="125.00" arrivalLane="210831345#1_0" arrivalPos="264.29" arrivalSpeed="12.82" duration="40.00" routeLength="446.75" waitingTime="0.00" waitingCount="0" stopTime="0.00" timeLoss="4.61" rerouteNo="0" devices="tripinfo_40" vType="DEFAULT_VEHTYPE" speedFactor="0.93" vaporized=""/>
    <tripinfo id="35" depart="75.00" departLane="-226276377#1_0" departPos="5.10" departSpeed="0.00" departDelay="0.88" arrival="127.00" arrivalLane="450554042#0_0" arrivalPos="622.66" arrivalSpeed="17.73" duration="52.00" routeLength="763.53" waitingTime="0.00" waitingCount="0" stopTime="0.00" timeLoss="7.22" rerouteNo="0" devices="tripinfo_35" vType="DEFAULT_VEHTYPE" speedFactor="1.09" vaporized=""/>
    <tripinfo id="27" depart="58.00" departLane="65746828#0_0" departPos="5.10" departSpeed="0.00" departDelay="0.82" arrival="135.00" arrivalLane="226276377#0_0" arrivalPos="135.52" arrivalSpeed="12.62" duration="77.00" routeLength="841.69" waitingTime="1.00" waitingCount="1" stopTime="0.00" timeLoss="15.40" rerouteNo="0" devices="tripinfo_27" vType="DEFAULT_VEHTYPE" speedFactor="0.92" vaporized=""/>
    <tripinfo id="50" depart="106.00" departLane="-218680176#1_0" departPos="5.10" departSpeed="0.00" departDelay="0.12" arrival="147.00" arrivalLane="231177697#0_0" arrivalPos="74.44" arrivalSpeed="10.65" duration="41.00" routeLength="205.97" waitingTime="13.00" waitingCount="1" stopTime="0.00" timeLoss="22.61" rerouteNo="0" devices="tripinfo_50" vType="DEFAULT_VEHTYPE" speedFactor="0.82" vaporized=""/>
    <tripinfo id="1" depart="3.00" departLane="-231177697#2_0" departPos="5.10" departSpeed="0.00" departDelay="0.88" arrival="155.00" arrivalLane="210831345#1_0" arrivalPos="264.29" arrivalSpeed="11.64" duration="152.00" routeLength="696.92" waitingTime="79.00" waitingCount="2" stopTime="0.00" timeLoss="94.88" rerouteNo="0" devices="tripinfo_1" vType="DEFAULT_VEHTYPE" speedFactor="0.90" vaporized=""/>
    <tripinfo id="12" depart="26.00" departLane="E8_0" departPos="5.10" departSpeed="0.00" departDelay="0.59" arrival="158.00" arrivalLane="210831347#0_1" arrivalPos="149.88" arrivalSpeed="13.11" duration="132.00" routeLength="1367.17" waitingTime="23.00" waitingCount="1" stopTime="0.00" timeLoss="37.59" rerouteNo="0" devices="tripinfo_12" vType="DEFAULT_VEHTYPE" speedFactor="1.01" vaporized=""/>
    <tripinfo id="22" depart="47.00" departLane="-218680176#1_0" departPos="5.10" departSpeed="0.00" departDelay="0.41" arrival="159.00" arrivalLane="210831345#1_1" arrivalPos="264.29" arrivalSpeed="11.07" duration="112.00" routeLength="699.94" waitingTime="38.00" waitingCount="1" stopTime="0.00" timeLoss="50.47" rerouteNo="0" devices="tripinfo_22" vType="DEFAULT_VEHTYPE" speedFactor="0.84" vaporized=""/>
    <tripinfo id="23" depart="50.00" departLane="-218680176#1_0" departPos="5.10" departSpeed="0.00" departDelay="1.29" arrival="159.00" arrivalLane="210831345#1_0" arrivalPos="264.29" arrivalSpeed="14.14" duration="109.00" routeLength="699.94" waitingTime="37.00" waitingCount="1" stopTime="0.00" timeLoss="60.22" rerouteNo="0" devices="tripinfo_23" vType="DEFAULT_VEHTYPE" speedFactor="1.07" vaporized=""/>
    <tripinfo id="21" depart="45.00" departLane="-231177697#2_0" departPos="5.10" departSpeed="0.00" departDelay="0.53" arrival="161.00" arrivalLane="210831345#1_1" arrivalPos="264.29" arrivalSpeed="12.70" duration="116.00" routeLength="696.92" waitingTime="46.00" waitingCount="2" stopTime="0.00" timeLoss="63.33" rerouteNo="0" devices="tripinfo_21" vType="DEFAULT_VEHTYPE" speedFactor="0.97" vaporized=""/>
    <tripinfo id="39" depart="83.00" departLane="-231177697#2_0" departPos="5.10" departSpeed="0.00" departDelay="0.41" arrival="163.00" arrivalLane="210831345#1_0" arrivalPos="264.29" arrivalSpeed="15.65" duration="80.00" routeLength="696.92" waitingTime="15.00" waitingCount="1" stopTime="0.00" timeLoss="35.88" rerouteNo="0" devices="tripinfo_39" vType="DEFAULT_VEHTYPE" speedFactor="1.15" vaporized=""/>
    <tripinfo id="34" depart="72.00" departLane="-231177697#2_0" departPos="5.10" departSpeed="0.00" departDelay="0.00" arrival="164.00" arrivalLane="210831345#1_0" arrivalPos="264.29" arrivalSpeed="12.04" duration="92.00" routeLength="696.92" waitingTime="18.00" waitingCount="1" stopTime="0.00" timeLoss="34.46" rerouteNo="0" devices="tripinfo_34" vType="DEFAULT_VEHTYPE" speedFactor="0.89" vaporized=""/>
    <tripinfo id="61" depart="130.00" departLane="978867529_0" departPos="5.10" departSpeed="0.00" departDelay="0.82" arrival="165.00" arrivalLane="218680176#0_0" arrivalPos="98.94" arrivalSpeed="13.03" duration="35.00" routeLength="442.15" waitingTime="0.00" waitingCount="0" stopTime="0.00" timeLoss="6.60" rerouteNo="0" devices="tripinfo_61" vType="DEFAULT_VEHTYPE" speedFactor="1.03" vaporized=""/>
    <tripinfo id="36" depart="77.00" departLane="978867529_0" departPos="5.10" departSpeed="0.00" departDelay="0.76" arrival="166.00" arrivalLane="210831345#1_1" arrivalPos="264.29" arrivalSpeed="12.95" duration="89.00" routeLength="951.92" waitingTime="4.00" waitingCount="1" stopTime="0.00" timeLoss="24.66" rerouteNo="0" devices="tripinfo_36" vType="DEFAULT_VEHTYPE" speedFactor="1.02" vaporized=""/>
    <tripinfo id="46" depart="98.00" departLane="978867529_0" departPos="5.10" departSpeed="0.00" departDelay="0.59" arrival="168.00" arrivalLane="210831347#0_0" arrivalPos="149.88" arrivalSpeed="16.83" duration="70.00" routeLength="812.56" waitingTime="10.00" waitingCount="1" stopTime="0.00" timeLoss="23.47" rerouteNo="0" devices="tripinfo_46" vType="DEFAULT_VEHTYPE" speedFactor="1.22" vaporized=""/>
    <tripinfo id="54" depart="115.00" departLane="256961141#0_0" departPos="5.10" departSpeed="0.00" departDelay="0.65" arrival="174.00" arrivalLane="450554042#0_0" arrivalPos="622.66" arrivalSpeed="16.92" duration="59.00" routeLength="853.74" waitingTime="0.00" waitingCount="0" stopTime="0.00" timeLoss="6.41" rerouteNo="0" devices="tripinfo_54" vType="DEFAULT_VEHTYPE" speedFactor="1.03" vaporized=""/>
    <tripinfo id="11" depart="24.00" departLane="-661251539_0" departPos="5.10" departSpeed="0.00" departDelay="0.71" arrival="176.00" arrivalLane="153964138#0_0" arrivalPos="337.99" arrivalSpeed="18.81" duration="152.00" routeLength="1239.04" waitingTime="57.00" waitingCount="2" stopTime="0.00" timeLoss="79.89" rerouteNo="0" devices="tripinfo_11" vType="DEFAULT_VEHTYPE" speedFactor="1.19" vaporized=""/>
    <tripinfo id="47" depart="100.00" departLane="-218680176#1_0" departPos="5.10" departSpeed="0.00" departDelay="0.47" arrival="176.00" arrivalLane="210831347#0_0" arrivalPos="149.88" arrivalSpeed="13.47" duration="76.00" routeLength="560.58" waitingTime="18.00" waitingCount="1" stopTime="0.00" timeLoss="32.92" rerouteNo="0" devices="tripinfo_47" vType="DEFAULT_VEHTYPE" speedFactor="1.00" vaporized=""/>
    <tripinfo id="25" depart="53.00" departLane="-661251539_0" departPos="5.10" departSpeed="0.00" departDelay="0.06" arrival="179.00" arrivalLane="153964138#0_1" arrivalPos="337.99" arrivalSpeed="16.18" duration="126.00" routeLength="1239.04" waitingTime="19.00" waitingCount="2" stopTime="0.00" timeLoss="40.26" rerouteNo="0" devices="tripinfo_25" vType="DEFAULT_VEHTYPE" speedFactor="1.00" vaporized=""/>
    <tripinfo id="30" depart="64.00" departLane="E8_0" departPos="5.10" departSpeed="0.00" departDelay="0.47" arrival="192.00" arrivalLane="226276377#0_1" arrivalPos="135.52" arrivalSpeed="14.93" duration="128.00" routeLength="784.51" waitingTime="65.00" waitingCount="1" stopTime="0.00" timeLoss="77.11" rerouteNo="0" devices="tripinfo_30" vType="DEFAULT_VEHTYPE" speedFactor="1.12" vaporized=""/>
    <tripinfo id="26" depart="56.00" departLane="-231177697#2_0" departPos="5.10" departSpeed="0.00" departDelay="0.94" arrival="195.00" arrivalLane="450554042#0_0" arrivalPos="622.66" arrivalSpeed="16.74" duration="139.00" routeLength="1613.58" waitingTime="20.00" waitingCount="2" stopTime="0.00" timeLoss="40.85" rerouteNo="0" devices="tripinfo_26" vType="DEFAULT_VEHTYPE" speedFactor="1.05" vaporized=""/>
    <tripinfo id="29" depart="63.00" departLane="-226276377#1_0" departPos="5.10" departSpeed="0.00" departDelay="1.59" arrival="195.00" arrivalLane="210831347#0_1" arrivalPos="149.88" arrivalSpeed="12.33" duration="132.00" routeLength="888.52" waitingTime="53.00" waitingCount="2" stopTime="0.00" timeLoss="69.06" rerouteNo="0" devices="tripinfo_29" vType="DEFAULT_VEHTYPE" speedFactor="0.97" vaporized=""/>
    <tripinfo id="0" depart="0.00" departLane="65746828#0_0" departPos="5.10" departSpeed="0.00" departDelay="0.00" arrival="197.00" arrivalLane="-256961141#1_1" arrivalPos="204.72" arrivalSpeed="13.79" duration="197.00" routeLength="931.50" waitingTime="124.00" waitingCount="1" stopTime="0.00" timeLoss="138.01" rerouteNo="0" devices="tripinfo_0" vType="DEFAULT_VEHTYPE" speedFactor="1.05" vaporized=""/>
    <tripinfo id="53" depart="113.00" departLane="-226276377#1_0" departPos="5.10" departSpeed="0.00" departDelay="0.76" arrival="197.00" arrivalLane="210831347#0_1" arrivalPos="149.88" arrivalSpeed="13.91" duration="84.00" routeLength="888.52" waitingTime="2.00" waitingCount="1" stopTime="0.00" timeLoss="26.13" rerouteNo="0" devices="tripinfo_53" vType="DEFAULT_VEHTYPE" speedFactor="1.06" vaporized=""/>
    <tripinfo id="20" depart="43.00" departLane="666135205#0_0" departPos="5.10" departSpeed="0.00" departDelay="0.65" arrival="204.00" arrivalLane="-256961141#1_0" arrivalPos="204.72" arrivalSpeed="14.35" duration="161.00" routeLength="1068.72" waitingTime="79.00" waitingCount="1" stopTime="0.00" timeLoss="95.66" rerouteNo="0" devices="tripinfo_20" vType="DEFAULT_VEHTYPE" speedFactor="1.11" vaporized=""/>
    <tripinfo id="4" depart="9.00" departLane="-661251539_0" departPos="5.10" departSpeed="0.00" departDelay="0.53" arrival="205.00" arrivalLane="-256961141#1_0" arrivalPos="204.72" arrivalSpeed="9.58" duration="196.00" routeLength="872.91" waitingTime="103.00" waitingCount="1" stopTime="0.00" timeLoss="116.77" rerouteNo="0" devices="tripinfo_4" vType="DEFAULT_VEHTYPE" speedFactor="0.77" vaporized=""/>
    <tripinfo id="62" depart="132.00" departLane="-218680176#1_0" departPos="5.10" departSpeed="0.00" departDelay="0.71" arrival="205.00" arrivalLane="210831345#1_0" arrivalPos="264.29" arrivalSpeed="12.27" duration="73.00" routeLength="699.94" waitingTime="3.00" waitingCount="1" stopTime="0.00" timeLoss="17.17" rerouteNo="0" devices="tripinfo_62" vType="DEFAULT_VEHTYPE" speedFactor="0.93" vaporized=""/>
    <tripinfo id="13" depart="28.00" departLane="-218680176#1_0" departPos="5.10" departSpeed="0.00" departDelay="0.47" arrival="206.00" arrivalLane="-256961141#1_1" arrivalPos="204.72" arrivalSpeed="13.46" duration="178.00" routeLength="1207.38" waitingTime="72.00" waitingCount="3" stopTime="0.00" timeLoss="95.43" rerouteNo="0" devices="tripinfo_13" vType="DEFAULT_VEHTYPE" speedFactor="0.99" vaporized=""/>
    <tripinfo id="55" depart="117.00" departLane="978867529_0" departPos="5.10" departSpeed="0.00" departDelay="0.53" arrival="206.00" arrivalLane="210831345#1_1" arrivalPos="264.29" arrivalSpeed="13.21" duration="89.00" routeLength="951.92" waitingTime="8.00" waitingCount="1" stopTime="0.00" timeLoss="22.46" rerouteNo="0" devices="tripinfo_55" vType="DEFAULT_VEHTYPE" speedFactor="0.98" vaporized=""/>
    <tripinfo id="33" depart="70.00" departLane="-231177697#2_0" departPos="5.10" departSpeed="0.00" departDelay="0.12" arrival="208.00" arrivalLane="-256961141#1_1" arrivalPos="204.72" arrivalSpeed="13.69" duration="138.00" routeLength="1204.36" waitingTime="36.00" waitingCount="1" stopTime="0.00" timeLoss="60.50" rerouteNo="0" devices="tripinfo_33" vType="DEFAULT_VEHTYPE" speedFactor="1.06" vaporized=""/>
    <tripinfo id="9" depart="20.00" departLane="978867529_0" departPos="5.10" departSpeed="0.00" departDelay="0.94" arrival="213.00" arrivalLane="-256961141#1_1" arrivalPos="204.72" arrivalSpeed="12.99" duration="193.00" routeLength="1459.36" waitingTime="73.00" waitingCount="2" stopTime="0.00" timeLoss="92.78" rerouteNo="0" devices="tripinfo_9" vType="DEFAULT_VEHTYPE" speedFactor="0.96" vaporized=""/>
    <tripinfo id="44" depart="94.00" departLane="-218680176#1_0" departPos="5.10" departSpeed="0.00" departDelay="0.82" arrival="214.00" arrivalLane="-256961141#1_1" arrivalPos="204.72" arrivalSpeed="13.42" duration="120.00" routeLength="1207.38" waitingTime="21.00" waitingCount="1" stopTime="0.00" timeLoss="39.23" rerouteNo="0" devices="tripinfo_44" vType="DEFAULT_VEHTYPE" speedFactor="1.01" vaporized=""/>
    <tripinfo id="28" depart="60.00" departLane="-226276377#1_0" departPos="5.10" departSpeed="0.00" departDelay="0.71" arrival="215.00" arrivalLane="231177697#0_0" arrivalPos="74.44" arrivalSpeed="12.76" duration="155.00" routeLength="1114.63" waitingTime="55.00" waitingCount="2" stopTime="0.00" timeLoss="73.71" rerouteNo="0" devices="tripinfo_28" vType="DEFAULT_VEHTYPE" speedFactor="0.96" vaporized=""/>
    <tripinfo id="49" depart="105.00" departLane="E8_0" departPos="5.10" departSpeed="0.00" departDelay="1.24" arrival="224.00" arrivalLane="39907424_0" arrivalPos="316.44" arrivalSpeed="11.74" duration="119.00" routeLength="1303.68" waitingTime="0.00" waitingCount="0" stopTime="0.00" timeLoss="12.09" rerouteNo="0" devices="tripinfo_49" vType="DEFAULT_VEHTYPE" speedFactor="0.85" vaporized=""/>
    <tripinfo id="57" depart="121.00" departLane="E8_0" departPos="5.10" departSpeed="0.00" departDelay="0.29" arrival="226.00" arrivalLane="39907424_0" arrivalPos="316.44" arrivalSpeed="15.07" duration="105.00" routeLength="1303.68" waitingTime="0.00" waitingCount="0" stopTime="0.00" timeLoss="21.03" rerouteNo="0" devices="tripinfo_57" vType="DEFAULT_VEHTYPE" speedFactor="1.09" vaporized=""/>
    <tripinfo id="42" depart="89.00" departLane="-661251539_0" departPos="5.10" departSpeed="0.00" departDelay="0.06" arrival="227.00" arrivalLane="153964138#0_0" arrivalPos="337.99" arrivalSpeed="17.99" duration="138.00" routeLength="1239.04" waitingTime="38.00" waitingCount="2" stopTime="0.00" timeLoss="58.47" rerouteNo="0" devices="tripinfo_42" vType="DEFAULT_VEHTYPE" speedFactor="1.08" vaporized=""/>
    <tripinfo id="75" depart="159.00" departLane="E8_0" departPos="5.10" departSpeed="0.00" departDelay="0.18" arrival="245.00" arrivalLane="226276377#0_1" arrivalPos="135.52" arrivalSpeed="10.80" duration="86.00" routeLength="784.51" waitingTime="10.00" waitingCount="1" stopTime="0.00" timeLoss="20.59" rerouteNo="0" devices="tripinfo_75" vType="DEFAULT_VEHTYPE" speedFactor="0.87" vaporized=""/>
    <tripinfo id="85" depart="180.00" departLane="E8_0" departPos="5.10" departSpeed="0.00" departDelay="0.00" arrival="254.00" arrivalLane="226276377#0_1" arrivalPos="135.52" arrivalSpeed="11.63" duration="74.00" routeLength="784.51" waitingTime="0.00" waitingCount="0" stopTime="0.00" timeLoss="6.05" rerouteNo="0" devices="tripinfo_85" vType="DEFAULT_VEHTYPE" speedFactor="0.85" vaporized=""/>
    <tripinfo id="10" depart="23.00" departLane="978867529_0" departPos="5.10" departSpeed="0.00" departDelay="1.82" arrival="263.00" arrivalLane="231177697#0_1" arrivalPos="74.44" arrivalSpeed="13.82" duration="240.00" routeLength="437.06" waitingTime="203.00" waitingCount="1" stopTime="0.00" timeLoss="211.98" rerouteNo="0" devices="tripinfo_10" vType="DEFAULT_VEHTYPE" speedFactor="1.04" vaporized=""/>
    <tripinfo id="15" depart="33.00" departLane="978867529_0" departPos="5.10" departSpeed="0.00" departDelay="1.24" arrival="264.00" arrivalLane="231177697#0_1" arrivalPos="74.44" arrivalSpeed="15.47" duration="231.00" routeLength="437.06" waitingTime="195.00" waitingCount="1" stopTime="0.00" timeLoss="206.65" rerouteNo="0" devices="tripinfo_15" vType="DEFAULT_VEHTYPE" speedFactor="1.17" vaporized=""/>
    <tripinfo id="7" depart="15.00" departLane="65746828#0_0" departPos="5.10" departSpeed="0.00" departDelay="0.18" arrival="266.00" arrivalLane="218680176#0_1" arrivalPos="98.94" arrivalSpeed="13.12" duration="251.00" routeLength="602.71" waitingTime="194.00" waitingCount="1" stopTime="0.00" timeLoss="204.96" rerouteNo="0" devices="tripinfo_7" vType="DEFAULT_VEHTYPE" speedFactor="0.98" vaporized=""/>
    <tripinfo id="5" depart="11.00" departLane="-226276377#1_0" departPos="5.10" departSpeed="0.00" departDelay="0.41" arrival="267.00" arrivalLane="218680176#0_1" arrivalPos="98.94" arrivalSpeed="14.52" duration="256.00" routeLength="1158.55" waitingTime="162.00" waitingCount="3" stopTime="0.00" timeLoss="191.05" rerouteNo="0" devices="tripinfo_5" vType="DEFAULT_VEHTYPE" speedFactor="1.24" vaporized=""/>
    <tripinfo id="32" depart="68.00" departLane="978867529_0" departPos="5.10" departSpeed="0.00" departDelay="0.24" arrival="267.00" arrivalLane="231177697#0_1" arrivalPos="74.44" arrivalSpeed="13.22" duration="199.00" routeLength="437.06" waitingTime="159.00" waitingCount="1" stopTime="0.00" timeLoss="169.16" rerouteNo="0" devices="tripinfo_32" vType="DEFAULT_VEHTYPE" speedFactor="0.95" vaporized=""/>
    <tripinfo id="17" depart="36.00" departLane="-661251539_0" departPos="5.10" departSpeed="0.00" departDelay="0.00" arrival="270.00" arrivalLane="218680176#0_1" arrivalPos="98.94" arrivalSpeed="12.20" duration="234.00" routeLength="1001.21" waitingTime="136.00" waitingCount="2" stopTime="0.00" timeLoss="155.06" rerouteNo="0" devices="tripinfo_17" vType="DEFAULT_VEHTYPE" speedFactor="0.93" vaporized=""/>
    <tripinfo id="51" depart="108.00" departLane="666135205#0_0" departPos="5.10" departSpeed="0.00" departDelay="0.00" arrival="272.00" arrivalLane="218680176#0_1" arrivalPos="98.94" arrivalSpeed="12.29" duration="164.00" routeLength="693.09" waitingTime="93.00" waitingCount="2" stopTime="0.00" timeLoss="110.41" rerouteNo="0" devices="tripinfo_51" vType="DEFAULT_VEHTYPE" speedFactor="0.97" vaporized=""/>
    <tripinfo id="60" depart="128.00" departLane="666135205#0_0" departPos="5.10" departSpeed="0.00" departDelay="0.94" arrival="274.00" arrivalLane="218680176#0_1" arrivalPos="98.94" arrivalSpeed="12.30" duration="146.00" routeLength="693.09" waitingTime="76.00" waitingCount="2" stopTime="0.00" timeLoss="92.04" rerouteNo="0" devices="tripinfo_60" vType="DEFAULT_VEHTYPE" speedFactor="0.96" vaporized=""/>
    <tripinfo id="103" depart="219.00" departLane="-661251539_0" departPos="5.10" departSpeed="0.00" departDelay="0.88" arrival="281.00" arrivalLane="-256961141#1_1" arrivalPos="204.72" arrivalSpeed="14.42" duration="62.00" routeLength="872.91" waitingTime="0.00" waitingCount="0" stopTime="0.00" timeLoss="8.25" rerouteNo="0" devices="tripinfo_103" vType="DEFAULT_VEHTYPE" speedFactor="1.13" vaporized=""/>
    <tripinfo id="68" depart="144.00" departLane="-218680176#1_0" departPos="5.10" departSpeed="0.00" departDelay="0.00" arrival="286.00" arrivalLane="231177697#0_0" arrivalPos="74.44" arrivalSpeed="9.89" duration="142.00" routeLength="205.97" waitingTime="114.00" waitingCount="1" stopTime="0.00" timeLoss="122.84" rerouteNo="0" devices="tripinfo_68" vType="DEFAULT_VEHTYPE" speedFactor="0.79" vaporized=""/>
    <tripinfo id="90" depart="191.00" departLane="666135205#0_0" departPos="5.10" departSpeed="0.00" departDelay="0.41" arrival="290.00" arrivalLane="231177697#0_0" arrivalPos="74.44" arrivalSpeed="13.61" duration="99.00" routeLength="649.17" waitingTime="38.00" waitingCount="1" stopTime="0.00" timeLoss="52.41" rerouteNo="0" devices="tripinfo_90" vType="DEFAULT_VEHTYPE" speedFactor="1.04" vaporized=""/>
    <tripinfo id="14" depart="30.00" departLane="978867529_0" departPos="5.10" departSpeed="0.00" departDelay="0.35" arrival="293.00" arrivalLane="226276377#0_0" arrivalPos="135.52" arrivalSpeed="15.47" duration="263.00" routeLength="1369.55" waitingTime="148.00" waitingCount="4" stopTime="0.00" timeLoss="186.68" rerouteNo="0" devices="tripinfo_14" vType="DEFAULT_VEHTYPE" speedFactor="1.18" vaporized=""/>
    <tripinfo id="31" depart="66.00" departLane="65746828#0_0" departPos="5.10" departSpeed="0.00" departDelay="0.35" arrival="294.00" arrivalLane="231177697#0_0" arrivalPos="74.44" arrivalSpeed="12.63" duration="228.00" routeLength="558.79" waitingTime="169.00" waitingCount="1" stopTime="0.00" timeLoss="185.77" rerouteNo="0" devices="tripinfo_31" vType="DEFAULT_VEHTYPE" speedFactor="0.99" vaporized=""/>
    <tripinfo id="19" depart="42.00" departLane="978867529_0" departPos="5.10" departSpeed="0.00" departDelay="1.76" arrival="296.00" arrivalLane="226276377#0_0" arrivalPos="135.52" arrivalSpeed="14.10" duration="254.00" routeLength="1369.55" waitingTime="142.00" waitingCount="3" stopTime="0.00" timeLoss="169.59" rerouteNo="0" devices="tripinfo_19" vType="DEFAULT_VEHTYPE" speedFactor="1.06" vaporized=""/>
    <tripinfo id="108" depart="229.00" departLane="65746828#0_0" departPos="5.10" departSpeed="0.00" departDelay="0.29" arrival="296.00" arrivalLane="231177697#0_0" arrivalPos="74.44" arrivalSpeed="13.66" duration="67.00" routeLength="558.79" waitingTime="10.00" waitingCount="1" stopTime="0.00" timeLoss="25.10" rerouteNo="0" devices="tripinfo_108" vType="DEFAULT_VEHTYPE" speedFactor="0.99" vaporized=""/>
    <tripinfo id="18" depart="39.00" departLane="978867529_0" departPos="5.10" departSpeed="0.00" departDelay="0.88" arrival="298.00" arrivalLane="226276377#0_0" arrivalPos="135.52" arrivalSpeed="15.02" duration="259.00" routeLength="1369.55" waitingTime="138.00" waitingCount="3" stopTime="0.00" timeLoss="175.82" rerouteNo="0" devices="tripinfo_18" vType="DEFAULT_VEHTYPE" speedFactor="1.08" vaporized=""/>
    <tripinfo id="59" depart="125.00" departLane="65746828#0_0" departPos="5.10" departSpeed="0.00" departDelay="0.06" arrival="298.00" arrivalLane="153964138#0_2" arrivalPos="337.99" arrivalSpeed="19.70" duration="173.00" routeLength="834.49" waitingTime="113.00" waitingCount="1" stopTime="0.00" timeLoss="126.03" rerouteNo="0" devices="tripinfo_59" vType="DEFAULT_VEHTYPE" speedFactor="1.20" vaporized=""/>
    <tripinfo id="91" depart="193.00" departLane="E8_0" departPos="5.10" departSpeed="0.00" departDelay="0.29" arrival="298.00" arrivalLane="-256961141#1_0" arrivalPos="204.72" arrivalSpeed="12.18" duration="105.00" routeLength="832.89" waitingTime="26.00" waitingCount="1" stopTime="0.00" timeLoss="38.15" rerouteNo="0" devices="tripinfo_91" vType="DEFAULT_VEHTYPE" speedFactor="0.91" vaporized=""/>
    <tripinfo id="116" depart="246.00" departLane="65746828#0_0" departPos="5.10" departSpeed="0.00" departDelay="0.35" arrival="299.00" arrivalLane="231177697#0_0" arrivalPos="74.44" arrivalSpeed="13.23" duration="53.00" routeLength="558.79" waitingTime="0.00" waitingCount="0" stopTime="0.00" timeLoss="10.23" rerouteNo="0" devices="tripinfo_116" vType="DEFAULT_VEHTYPE" speedFactor="0.97" vaporized=""/>
    <tripinfo id="79" depart="168.00" departLane="-231177697#2_0" departPos="5.10" departSpeed="0.00" departDelay="0.71" arrival="302.00" arrivalLane="153964138#0_0" arrivalPos="337.99" arrivalSpeed="12.81" duration="134.00" routeLength="417.38" waitingTime="93.00" waitingCount="1" stopTime="0.00" timeLoss="101.23" rerouteNo="0" devices="tripinfo_79" vType="DEFAULT_VEHTYPE" speedFactor="0.82" vaporized=""/>
    <tripinfo id="45" depart="97.00" departLane="-218680176#1_0" departPos="5.10" departSpeed="0.00" departDelay="1.71" arrival="303.00" arrivalLane="226276377#0_0" arrivalPos="135.52" arrivalSpeed="10.96" duration="206.00" routeLength="1117.57" waitingTime="99.00" waitingCount="2" stopTime="0.00" timeLoss="118.07" rerouteNo="0" devices="tripinfo_45" vType="DEFAULT_VEHTYPE" speedFactor="0.87" vaporized=""/>
    <tripinfo id="69" depart="147.00" departLane="666135205#0_0" departPos="5.10" departSpeed="0.00" departDelay="0.88" arrival="305.00" arrivalLane="153964138#0_0" arrivalPos="337.99" arrivalSpeed="17.01" duration="158.00" routeLength="924.87" waitingTime="76.00" waitingCount="2" stopTime="0.00" timeLoss="95.71" rerouteNo="0" devices="tripinfo_69" vType="DEFAULT_VEHTYPE" speedFactor="1.03" vaporized=""/>
    <tripinfo id="74" depart="157.00" departLane="-226276377#1_0" departPos="5.10" departSpeed="0.00" departDelay="0.29" arrival="305.00" arrivalLane="210831345#1_0" arrivalPos="264.29" arrivalSpeed="14.03" duration="148.00" routeLength="977.93" waitingTime="63.00" waitingCount="2" stopTime="0.00" timeLoss="83.84" rerouteNo="0" devices="tripinfo_74" vType="DEFAULT_VEHTYPE" speedFactor="1.06" vaporized=""/>
    <tripinfo id="78" depart="166.00" departLane="-661251539_0" departPos="5.10" departSpeed="0.00" departDelay="0.82" arrival="305.00" arrivalLane="226276377#0_0" arrivalPos="135.52" arrivalSpeed="13.10" duration="139.00" routeLength="783.10" waitingTime="59.00" waitingCount="2" stopTime="0.00" timeLoss="81.51" rerouteNo="0" devices="tripinfo_78" vType="DEFAULT_VEHTYPE" speedFactor="0.95" vaporized=""/>
    <tripinfo id="77" depart="164.00" departLane="-226276377#1_0" departPos="5.10" departSpeed="0.00" departDelay="0.94" arrival="307.00" arrivalLane="210831345#1_0" arrivalPos="264.29" arrivalSpeed="14.43" duration="143.00" routeLength="977.93" waitingTime="58.00" waitingCount="2" stopTime="0.00" timeLoss="82.27" rerouteNo="0" devices="tripinfo_77" vType="DEFAULT_VEHTYPE" speedFactor="1.13" vaporized=""/>
    <tripinfo id="95" depart="202.00" departLane="-661251539_0" departPos="5.10" departSpeed="0.00" departDelay="0.82" arrival="308.00" arrivalLane="210831345#1_0" arrivalPos="264.29" arrivalSpeed="15.91" duration="106.00" routeLength="826.64" waitingTime="33.00" waitingCount="2" stopTime="0.00" timeLoss="54.24" rerouteNo="0" devices="tripinfo_95" vType="DEFAULT_VEHTYPE" speedFactor="1.18" vaporized=""/>
    <tripinfo id="63" depart="135.00" departLane="-218680176#1_0" departPos="5.10" departSpeed="0.00" departDelay="1.59" arrival="314.00" arrivalLane="450554042#0_1" arrivalPos="622.66" arrivalSpeed="20.14" duration="179.00" routeLength="1616.60" waitingTime="78.00" waitingCount="1" stopTime="0.00" timeLoss="94.39" rerouteNo="0" devices="tripinfo_63" vType="DEFAULT_VEHTYPE" speedFactor="1.22" vaporized=""/>
    <tripinfo id="114" depart="242.00" departLane="-226276377#1_0" departPos="5.10" departSpeed="0.00" departDelay="0.59" arrival="315.00" arrivalLane="450554042#0_0" arrivalPos="622.66" arrivalSpeed="15.85" duration="73.00" routeLength="763.53" waitingTime="14.00" waitingCount="1" stopTime="0.00" timeLoss="25.65" rerouteNo="0" devices="tripinfo_114" vType="DEFAULT_VEHTYPE" speedFactor="1.01" vaporized=""/>